
             +---------------------------------------------------+
             |                                                   |
             |                   WANNIER90                       |
             |                                                   |
             +---------------------------------------------------+
             |                                                   |
             |        Welcome to the Maximally-Localized         |
             |        Generalized Wannier Functions code         |
             |            http://www.wannier.org                 |
             |                                                   |
             |                                                   |
             |  Wannier90 Developer Group:                       |
             |    Giovanni Pizzi    (EPFL)                       |
             |    Valerio Vitale    (Cambridge)                  |
             |    David Vanderbilt  (Rutgers University)         |
             |    Nicola Marzari    (EPFL)                       |
             |    Ivo Souza         (Universidad del Pais Vasco) |
             |    Arash A. Mostofi  (Imperial College London)    |
             |    Jonathan R. Yates (University of Oxford)       |
             |                                                   |
             |  For the full list of Wannier90 3.x authors,      |
             |  please check the code documentation and the      |
             |  README on the GitHub page of the code            |
             |                                                   |
             |                                                   |
             |  Please cite                                      |
             |                                                   |
             |  [ref] "Wannier90 as a community code:            |
             |        new features and applications",            |
             |        G. Pizzi et al., J. Phys. Cond. Matt. 32,  |
             |        165902 (2020).                             |
             |        http://doi.org/10.1088/1361-648X/ab51ff    |
             |                                                   |
             |  in any publications arising from the use of      |
             |  this code. For the method please cite            |
             |                                                   |
             |  [ref] "Maximally Localized Generalised Wannier   |
             |         Functions for Composite Energy Bands"     |
             |         N. Marzari and D. Vanderbilt              |
             |         Phys. Rev. B 56 12847 (1997)              |
             |                                                   |
             |  [ref] "Maximally Localized Wannier Functions     |
             |         for Entangled Energy Bands"               |
             |         I. Souza, N. Marzari and D. Vanderbilt    |
             |         Phys. Rev. B 65 035109 (2001)             |
             |                                                   |
             |                                                   |
             | Copyright (c) 1996-2020                           |
             |        The Wannier90 Developer Group and          |
             |        individual contributors                    |
             |                                                   |
             |      Release: 3.1.0        5th March    2020      |
             |                                                   |
             | This program is free software; you can            |
             | redistribute it and/or modify it under the terms  |
             | of the GNU General Public License as published by |
             | the Free Software Foundation; either version 2 of |
             | the License, or (at your option) any later version|
             |                                                   |
             | This program is distributed in the hope that it   |
             | will be useful, but WITHOUT ANY WARRANTY; without |
             | even the implied warranty of MERCHANTABILITY or   |
             | FITNESS FOR A PARTICULAR PURPOSE. See the GNU     |
             | General Public License for more details.          |
             |                                                   |
             | You should have received a copy of the GNU General|
             | Public License along with this program; if not,   |
             | write to the Free Software Foundation, Inc.,      |
             | 675 Mass Ave, Cambridge, MA 02139, USA.           |
             |                                                   |
             +---------------------------------------------------+
             |    Execution started on 13Oct2022 at 15:09:27     |
             +---------------------------------------------------+
 
 ******************************************************************************
 * -> Using CODATA 2006 constant values                                       *
 *    (http://physics.nist.gov/cuu/Constants/index.html)                      *
 * -> Using Bohr value from CODATA                                            *
 ******************************************************************************
 

 Running in parallel on  16 CPUs


                                    ------
                                    SYSTEM
                                    ------

                              Lattice Vectors (Ang)
                    a_1     1.415000   0.816950   5.914333
                    a_2    -1.415000   0.816950   5.914333
                    a_3     0.000000  -1.633901   5.914333

                   Unit Cell Volume:      41.02127  (Ang^3)

                        Reciprocal-Space Vectors (Ang^-1)
                    b_1     2.220207   1.281837   0.354122
                    b_2    -2.220207   1.281837   0.354122
                    b_3    -0.000000  -2.563675   0.354122
  
 *----------------------------------------------------------------------------*
 |   Site       Fractional Coordinate          Cartesian Coordinate (Ang)     |
 +----------------------------------------------------------------------------+
 | Pd   1   0.00000   0.00000   0.00000   |    0.00000   0.00000   0.00000    |
 | Co   1   0.50000   0.50000   0.50000   |    0.00000   0.00000   8.87150    |
 | O    1   0.11300   0.11300   0.11300   |    0.00000   0.00000   2.00496    |
 | O    2   0.88700   0.88700   0.88700   |   -0.00000   0.00000  15.73804    |
 *----------------------------------------------------------------------------*
                                ------------
                                K-POINT GRID
                                ------------
  
             Grid size = 13 x 13 x 13      Total points = 2197
  
  
 *---------------------------------- MAIN ------------------------------------*
 |  Number of Wannier Functions               :                 1             |
 |  Number of Objective Wannier Functions     :                 1             |
 |  Number of input Bloch states              :                24             |
 |  Output verbosity (1=low, 5=high)          :                 1             |
 |  Timing Level (1=low, 5=high)              :                 1             |
 |  Optimisation (0=memory, 3=speed)          :                 3             |
 |  Length Unit                               :               Ang             |
 |  Post-processing setup (write *.nnkp)      :                 F             |
 |  Using Gamma-only branch of algorithms     :                 F             |
 *----------------------------------------------------------------------------*
 *------------------------------- WANNIERISE ---------------------------------*
 |  Total number of iterations                :              1000             |
 |  Number of CG steps before reset           :                 5             |
 |  Trial step length for line search         :             2.000             |
 |  Convergence tolerence                     :         0.100E-09             |
 |  Convergence window                        :                -1             |
 |  Iterations between writing output         :                 1             |
 |  Iterations between backing up to disk     :               100             |
 |  Write r^2_nm to file                      :                 F             |
 |  Write xyz WF centres to file              :                 F             |
 |  Write on-site energies <0n|H|0n> to file  :                 T             |
 |  Use guiding centre to control phases      :                 T             |
 |  Use phases for initial projections        :                 F             |
 |  Iterations before starting guiding centres:                 0             |
 |  Iterations between using guiding centres  :                 1             |
 *----------------------------------------------------------------------------*
 *------------------------------- DISENTANGLE --------------------------------*
 |  Using band disentanglement                :                 T             |
 |  Total number of iterations                :             20000             |
 |  Mixing ratio                              :             0.500             |
 |  Convergence tolerence                     :         1.000E-14             |
 |  Convergence window                        :                 3             |
 *----------------------------------------------------------------------------*
 *-------------------------------- PLOTTING ----------------------------------*
 |  Plotting interpolated bandstructure       :                 T             |
 |   Number of K-path sections                :                 3             |
 |   Divisions along first K-path section     :               100             |
 |   Output format                            :           gnuplot             |
 |   Output mode                              :               s-k             |
 *----------------------------------------------------------------------------*
 |   K-space path sections:                                                   |
 |    From: G       0.000  0.000  0.000     To: K       0.000  0.333 -0.333   |
 |    From: K       0.000  0.333 -0.333     To: M       0.167  0.167 -0.333   |
 |    From: M       0.167  0.167 -0.333     To: G       0.000  0.000  0.000   |
 *----------------------------------------------------------------------------*
 |  Plotting Hamiltonian in WF basis          :                 T             |
 *----------------------------------------------------------------------------*
 Time to read parameters        0.283 (sec)

 *---------------------------------- K-MESH ----------------------------------*
 +----------------------------------------------------------------------------+
 |                    Distance to Nearest-Neighbour Shells                    |
 |                    ------------------------------------                    |
 |          Shell             Distance (Ang^-1)          Multiplicity         |
 |          -----             -----------------          ------------         |
 |             1                   0.081720                      2            |
 |             2                   0.163441                      2            |
 |             3                   0.199078                      6            |
 |             4                   0.204593                      6            |
 |             5                   0.225305                      6            |
 |             6                   0.239668                      6            |
 |             7                   0.245161                      2            |
 |             8                   0.274316                      6            |
 |             9                   0.293904                      6            |
 |            10                   0.326882                      2            |
 |            11                   0.336293                      6            |
 |            12                   0.341570                      6            |
 |            13                   0.351210                     12            |
 |            14                   0.358713                      6            |
 |            15                   0.378660                     12            |
 |            16                   0.395351                      6            |
 |            17                   0.398156                      6            |
 |            18                   0.405330                      6            |
 |            19                   0.408602                      2            |
 |            20                   0.409186                      6            |
 |            21                   0.417266                      6            |
 |            22                   0.420445                     12            |
 |            23                   0.429333                      6            |
 |            24                   0.438086                      6            |
 |            25                   0.450611                      6            |
 |            26                   0.472781                     12            |
 |            27                   0.478381                      6            |
 |            28                   0.479336                      6            |
 |            29                   0.490323                      2            |
 |            30                   0.495324                      6            |
 |            31                   0.503324                      6            |
 |            32                   0.522468                     12            |
 |            33                   0.524594                     12            |
 |            34                   0.530059                      6            |
 |            35                   0.532566                     12            |
 |            36                   0.533013                     12            |
 +----------------------------------------------------------------------------+
 | The b-vectors are chosen automatically                                     |
 | The following shells are used:   1,  3                                     |
 +----------------------------------------------------------------------------+
 |                        Shell   # Nearest-Neighbours                        |
 |                        -----   --------------------                        |
 |                          1               2                                 |
 |                          3               6                                 |
 +----------------------------------------------------------------------------+
 | Completeness relation is fully satisfied [Eq. (B1), PRB 56, 12847 (1997)]  |
 +----------------------------------------------------------------------------+
 |                  b_k Vectors (Ang^-1) and Weights (Ang^2)                  |
 |                  ----------------------------------------                  |
 |            No.         b_k(x)      b_k(y)      b_k(z)        w_b           |
 |            ---        --------------------------------     --------        |
 |             1        -0.000000   -0.000000    0.081720    72.013072        |
 |             2         0.000000    0.000000   -0.081720    72.013072        |
 |             3         0.170785    0.098603    0.027240     8.571160        |
 |             4        -0.170785   -0.098603   -0.027240     8.571160        |
 |             5        -0.170785    0.098603    0.027240     8.571160        |
 |             6         0.170785   -0.098603   -0.027240     8.571160        |
 |             7        -0.000000   -0.197206    0.027240     8.571160        |
 |             8         0.000000    0.197206   -0.027240     8.571160        |
 +----------------------------------------------------------------------------+
 |                           b_k Directions (Ang^-1)                          |
 |                           -----------------------                          |
 |            No.           x           y           z                         |
 |            ---        --------------------------------                     |
 |             1        -0.000000   -0.000000    0.081720                     |
 |             2         0.170785    0.098603    0.027240                     |
 |             3        -0.170785    0.098603    0.027240                     |
 |             4        -0.000000   -0.197206    0.027240                     |
 +----------------------------------------------------------------------------+
  
 Time to get kmesh              0.956 (sec)
 *============================================================================*
 |                              MEMORY ESTIMATE                               |
 |         Maximum RAM allocated during each phase of the calculation         |
 *============================================================================*
 |                        Disentanglement          196.86 Mb                  |
 |                            Wannierise:            3.36 Mb                  |
 |                          plot_wannier:            3.36 Mb                  |
 *----------------------------------------------------------------------------*
  
 Starting a new Wannier90 calculation ...


 Reading overlaps from wannier90.mmn    : File generated by VASP: PdCoO2-R-3m

 Reading projections from wannier90.amn : File generated by VASP: PdCoO2-R-3m

 Time to read overlaps         12.728 (sec)

 *------------------------------- DISENTANGLE --------------------------------*
 +----------------------------------------------------------------------------+
 |                              Energy  Windows                               |
 |                              ---------------                               |
 |                   Outer:   -0.70371  to   34.06258  (eV)                   |
 |                   Inner:    7.70000  to    8.00000  (eV)                   |
 +----------------------------------------------------------------------------+
   Number of target bands to extract:    1

                   Unitarised projection of Wannier functions                  
                   ------------------------------------------                  
   A_mn = <psi_m|g_n> --> S = A.A^+ --> U = S^-1/2.A
   In dis_project... done
   Using an inner window (linner = T)
   In dis_proj_froz... done

                   Extraction of optimally-connected subspace                  
                   ------------------------------------------                  
 +---------------------------------------------------------------------+<-- DIS
 |  Iter     Omega_I(i-1)      Omega_I(i)      Delta (frac.)    Time   |<-- DIS
 +---------------------------------------------------------------------+<-- DIS
       1      20.71126151      19.11674994       8.341E-02      0.00    <-- DIS
       2      19.73422164      18.43639972       7.039E-02      0.01    <-- DIS
       3      18.97403807      17.90312779       5.982E-02      0.03    <-- DIS
       4      18.33699516      17.43909077       5.149E-02      0.04    <-- DIS
       5      17.79332463      17.02465852       4.515E-02      0.06    <-- DIS
       6      17.31965104      16.64859738       4.031E-02      0.07    <-- DIS
       7      16.89919943      16.30342755       3.654E-02      0.09    <-- DIS
       8      16.52014128      15.98385032       3.355E-02      0.10    <-- DIS
       9      16.17409509      15.68593508       3.112E-02      0.12    <-- DIS
      10      15.85502026      15.40665194       2.910E-02      0.13    <-- DIS
      11      15.55845739      15.14359021       2.740E-02      0.15    <-- DIS
      12      15.28102325      14.89478274       2.593E-02      0.16    <-- DIS
      13      15.02007963      14.65859240       2.466E-02      0.17    <-- DIS
      14      14.77351649      14.43363615       2.355E-02      0.19    <-- DIS
      15      14.53960893      14.21873251       2.257E-02      0.20    <-- DIS
      16      14.31692146      14.01286394       2.170E-02      0.22    <-- DIS
      17      14.10424261      13.81514898       2.093E-02      0.23    <-- DIS
      18      13.90053908      13.62482101       2.024E-02      0.25    <-- DIS
      19      13.70492267      13.44121152       1.962E-02      0.26    <-- DIS
      20      13.51662572      13.26373664       1.907E-02      0.28    <-- DIS
      21      13.33498224      13.09188610       1.857E-02      0.29    <-- DIS
      22      13.15941303      12.92521383       1.812E-02      0.31    <-- DIS
      23      12.98941370      12.76333003       1.771E-02      0.32    <-- DIS
      24      12.82454463      12.60589424       1.735E-02      0.34    <-- DIS
      25      12.66442263      12.45260935       1.701E-02      0.35    <-- DIS
      26      12.50871370      12.30321627       1.670E-02      0.37    <-- DIS
      27      12.35712683      12.15748923       1.642E-02      0.38    <-- DIS
      28      12.20940848      12.01523156       1.616E-02      0.39    <-- DIS
      29      12.06533788      11.87627203       1.592E-02      0.41    <-- DIS
      30      11.92472270      11.74046145       1.569E-02      0.42    <-- DIS
      31      11.78739538      11.60766977       1.548E-02      0.44    <-- DIS
      32      11.65320973      11.47778339       1.528E-02      0.45    <-- DIS
      33      11.52203806      11.35070286       1.509E-02      0.47    <-- DIS
      34      11.39376852      11.22634082       1.491E-02      0.48    <-- DIS
      35      11.26830286      11.10462012       1.474E-02      0.50    <-- DIS
      36      11.14555435      10.98547228       1.457E-02      0.51    <-- DIS
      37      11.02544607      10.86883608       1.441E-02      0.53    <-- DIS
      38      10.90790933      10.75465632       1.425E-02      0.54    <-- DIS
      39      10.79288236      10.64288282       1.409E-02      0.55    <-- DIS
      40      10.68030912      10.53346949       1.394E-02      0.57    <-- DIS
      41      10.57013835      10.42637358       1.379E-02      0.58    <-- DIS
      42      10.46232272      10.32155505       1.364E-02      0.60    <-- DIS
      43      10.35681806      10.21897600       1.349E-02      0.61    <-- DIS
      44      10.25358285      10.11860025       1.334E-02      0.63    <-- DIS
      45      10.15257765      10.02039292       1.319E-02      0.64    <-- DIS
      46      10.05376468       9.92432022       1.304E-02      0.66    <-- DIS
      47       9.95710755       9.83034909       1.289E-02      0.67    <-- DIS
      48       9.86257088       9.73844710       1.275E-02      0.69    <-- DIS
      49       9.77012017       9.64858224       1.260E-02      0.70    <-- DIS
      50       9.67972157       9.56072284       1.245E-02      0.72    <-- DIS
      51       9.59134175       9.47483745       1.230E-02      0.73    <-- DIS
      52       9.50494779       9.39089478       1.215E-02      0.75    <-- DIS
      53       9.42050711       9.30886368       1.199E-02      0.76    <-- DIS
      54       9.33798738       9.22871305       1.184E-02      0.78    <-- DIS
      55       9.25735651       9.15041189       1.169E-02      0.79    <-- DIS
      56       9.17858261       9.07392925       1.153E-02      0.80    <-- DIS
      57       9.10163393       8.99923423       1.138E-02      0.82    <-- DIS
      58       9.02647891       8.92629598       1.122E-02      0.83    <-- DIS
      59       8.95308614       8.85508373       1.107E-02      0.85    <-- DIS
      60       8.88142433       8.78556676       1.091E-02      0.86    <-- DIS
      61       8.81146238       8.71771445       1.075E-02      0.88    <-- DIS
      62       8.74316933       8.65149630       1.060E-02      0.89    <-- DIS
      63       8.67651440       8.58688188       1.044E-02      0.91    <-- DIS
      64       8.61146696       8.52384091       1.028E-02      0.92    <-- DIS
      65       8.54799658       8.46234327       1.012E-02      0.93    <-- DIS
      66       8.48607302       8.40235898       9.963E-03      0.95    <-- DIS
      67       8.42566623       8.34385823       9.805E-03      0.96    <-- DIS
      68       8.36674639       8.28681141       9.646E-03      0.98    <-- DIS
      69       8.30928388       8.23118912       9.488E-03      0.99    <-- DIS
      70       8.25324933       8.17696216       9.330E-03      1.01    <-- DIS
      71       8.19861361       8.12410159       9.172E-03      1.02    <-- DIS
      72       8.14534783       8.07257868       9.014E-03      1.04    <-- DIS
      73       8.09342337       8.02236500       8.858E-03      1.05    <-- DIS
      74       8.04281189       7.97343235       8.701E-03      1.07    <-- DIS
      75       7.99348533       7.92575286       8.546E-03      1.08    <-- DIS
      76       7.94541591       7.87929891       8.391E-03      1.10    <-- DIS
      77       7.89857615       7.83404323       8.237E-03      1.11    <-- DIS
      78       7.85293890       7.78995884       8.085E-03      1.15    <-- DIS
      79       7.80847732       7.74701911       7.933E-03      1.16    <-- DIS
      80       7.76516489       7.70519772       7.783E-03      1.17    <-- DIS
      81       7.72297543       7.66446874       7.633E-03      1.19    <-- DIS
      82       7.68188310       7.62480656       7.486E-03      1.20    <-- DIS
      83       7.64186244       7.58618595       7.339E-03      1.22    <-- DIS
      84       7.60288830       7.54858206       7.194E-03      1.23    <-- DIS
      85       7.56493594       7.51197042       7.051E-03      1.25    <-- DIS
      86       7.52798098       7.47632693       6.909E-03      1.26    <-- DIS
      87       7.49199940       7.44162789       6.769E-03      1.28    <-- DIS
      88       7.45696758       7.40785001       6.630E-03      1.29    <-- DIS
      89       7.42286228       7.37497038       6.494E-03      1.31    <-- DIS
      90       7.38966067       7.34296652       6.359E-03      1.32    <-- DIS
      91       7.35734030       7.31181633       6.226E-03      1.34    <-- DIS
      92       7.32587912       7.28149815       6.095E-03      1.35    <-- DIS
      93       7.29525549       7.25199071       5.966E-03      1.37    <-- DIS
      94       7.26544816       7.22327317       5.839E-03      1.38    <-- DIS
      95       7.23643631       7.19532510       5.714E-03      1.40    <-- DIS
      96       7.20819951       7.16812647       5.590E-03      1.41    <-- DIS
      97       7.18071774       7.14165770       5.469E-03      1.43    <-- DIS
      98       7.15397138       7.11589959       5.350E-03      1.44    <-- DIS
      99       7.12794124       7.09083337       5.233E-03      1.45    <-- DIS
     100       7.10260851       7.06644068       5.118E-03      1.47    <-- DIS
     101       7.07795480       7.04270356       5.005E-03      1.48    <-- DIS
     102       7.05396211       7.01960447       4.895E-03      1.50    <-- DIS
     103       7.03061286       6.99712625       4.786E-03      1.51    <-- DIS
     104       7.00788985       6.97525217       4.679E-03      1.53    <-- DIS
     105       6.98577627       6.95396586       4.574E-03      1.54    <-- DIS
     106       6.96425572       6.93325137       4.472E-03      1.56    <-- DIS
     107       6.94331218       6.91309312       4.371E-03      1.57    <-- DIS
     108       6.92292999       6.89347591       4.273E-03      1.59    <-- DIS
     109       6.90309390       6.87438492       4.176E-03      1.60    <-- DIS
     110       6.88378902       6.85580572       4.082E-03      1.61    <-- DIS
     111       6.86500082       6.83772420       3.989E-03      1.63    <-- DIS
     112       6.84671514       6.82012665       3.899E-03      1.64    <-- DIS
     113       6.82891817       6.80299971       3.810E-03      1.66    <-- DIS
     114       6.81159648       6.78633033       3.723E-03      1.67    <-- DIS
     115       6.79473694       6.77010585       3.638E-03      1.69    <-- DIS
     116       6.77832679       6.75431390       3.555E-03      1.70    <-- DIS
     117       6.76235361       6.73894248       3.474E-03      1.72    <-- DIS
     118       6.74680528       6.72397988       3.395E-03      1.73    <-- DIS
     119       6.73167002       6.70941473       3.317E-03      1.75    <-- DIS
     120       6.71693636       6.69523594       3.241E-03      1.76    <-- DIS
     121       6.70259314       6.68143274       3.167E-03      1.77    <-- DIS
     122       6.68862951       6.66799466       3.095E-03      1.79    <-- DIS
     123       6.67503489       6.65491151       3.024E-03      1.80    <-- DIS
     124       6.66179902       6.64217338       2.955E-03      1.82    <-- DIS
     125       6.64891191       6.62977064       2.887E-03      1.83    <-- DIS
     126       6.63636383       6.61769394       2.821E-03      1.85    <-- DIS
     127       6.62414535       6.60593416       2.757E-03      1.86    <-- DIS
     128       6.61224729       6.59448249       2.694E-03      1.88    <-- DIS
     129       6.60066071       6.58333031       2.632E-03      1.89    <-- DIS
     130       6.58937696       6.57246928       2.572E-03      1.91    <-- DIS
     131       6.57838759       6.56189130       2.514E-03      1.92    <-- DIS
     132       6.56768443       6.55158848       2.457E-03      1.93    <-- DIS
     133       6.55725951       6.54155318       2.401E-03      1.95    <-- DIS
     134       6.54710511       6.53177794       2.347E-03      1.96    <-- DIS
     135       6.53721372       6.52225557       2.293E-03      1.98    <-- DIS
     136       6.52757803       6.51297904       2.242E-03      2.04    <-- DIS
     137       6.51819098       6.50394154       2.191E-03      2.05    <-- DIS
     138       6.50904567       6.49513646       2.141E-03      2.07    <-- DIS
     139       6.50013542       6.48655738       2.093E-03      2.08    <-- DIS
     140       6.49145375       6.47819807       2.046E-03      2.09    <-- DIS
     141       6.48299435       6.47005246       2.000E-03      2.11    <-- DIS
     142       6.47475109       6.46211467       1.955E-03      2.12    <-- DIS
     143       6.46671805       6.45437900       1.912E-03      2.14    <-- DIS
     144       6.45888943       6.44683991       1.869E-03      2.15    <-- DIS
     145       6.45125965       6.43949201       1.827E-03      2.17    <-- DIS
     146       6.44382325       6.43233008       1.787E-03      2.18    <-- DIS
     147       6.43657496       6.42534904       1.747E-03      2.19    <-- DIS
     148       6.42950965       6.41854397       1.708E-03      2.21    <-- DIS
     149       6.42262232       6.41191009       1.671E-03      2.22    <-- DIS
     150       6.41590815       6.40544274       1.634E-03      2.24    <-- DIS
     151       6.40936244       6.39913742       1.598E-03      2.25    <-- DIS
     152       6.40298063       6.39298976       1.563E-03      2.27    <-- DIS
     153       6.39675828       6.38699550       1.529E-03      2.28    <-- DIS
     154       6.39069111       6.38115051       1.495E-03      2.30    <-- DIS
     155       6.38477493       6.37545078       1.463E-03      2.31    <-- DIS
     156       6.37900568       6.36989243       1.431E-03      2.32    <-- DIS
     157       6.37337944       6.36447167       1.400E-03      2.34    <-- DIS
     158       6.36789238       6.35918483       1.369E-03      2.35    <-- DIS
     159       6.36254078       6.35402835       1.340E-03      2.37    <-- DIS
     160       6.35732104       6.34899876       1.311E-03      2.38    <-- DIS
     161       6.35222965       6.34409270       1.283E-03      2.40    <-- DIS
     162       6.34726322       6.33930691       1.255E-03      2.41    <-- DIS
     163       6.34241844       6.33463821       1.228E-03      2.43    <-- DIS
     164       6.33769209       6.33008351       1.202E-03      2.44    <-- DIS
     165       6.33308107       6.32563984       1.176E-03      2.45    <-- DIS
     166       6.32858233       6.32130427       1.151E-03      2.47    <-- DIS
     167       6.32419295       6.31707399       1.127E-03      2.48    <-- DIS
     168       6.31991006       6.31294624       1.103E-03      2.50    <-- DIS
     169       6.31573088       6.30891836       1.080E-03      2.51    <-- DIS
     170       6.31165272       6.30498776       1.057E-03      2.53    <-- DIS
     171       6.30767295       6.30115192       1.035E-03      2.54    <-- DIS
     172       6.30378902       6.29740839       1.013E-03      2.56    <-- DIS
     173       6.29999847       6.29375479       9.920E-04      2.57    <-- DIS
     174       6.29629887       6.29018881       9.714E-04      2.58    <-- DIS
     175       6.29268790       6.28670820       9.512E-04      2.60    <-- DIS
     176       6.28916328       6.28331079       9.314E-04      2.61    <-- DIS
     177       6.28572280       6.27999443       9.122E-04      2.63    <-- DIS
     178       6.28236431       6.27675708       8.933E-04      2.64    <-- DIS
     179       6.27908572       6.27359672       8.749E-04      2.66    <-- DIS
     180       6.27588500       6.27051140       8.570E-04      2.67    <-- DIS
     181       6.27276018       6.26749922       8.394E-04      2.69    <-- DIS
     182       6.26970933       6.26455834       8.222E-04      2.70    <-- DIS
     183       6.26673060       6.26168696       8.055E-04      2.71    <-- DIS
     184       6.26382216       6.25888334       7.891E-04      2.73    <-- DIS
     185       6.26098224       6.25614577       7.731E-04      2.75    <-- DIS
     186       6.25820914       6.25347261       7.574E-04      2.76    <-- DIS
     187       6.25550118       6.25086225       7.421E-04      2.78    <-- DIS
     188       6.25285673       6.24831313       7.272E-04      2.79    <-- DIS
     189       6.25027421       6.24582371       7.126E-04      2.81    <-- DIS
     190       6.24775209       6.24339254       6.983E-04      2.82    <-- DIS
     191       6.24528887       6.24101815       6.843E-04      2.83    <-- DIS
     192       6.24288309       6.23869916       6.706E-04      2.85    <-- DIS
     193       6.24053333       6.23643420       6.573E-04      2.86    <-- DIS
     194       6.23823821       6.23422193       6.442E-04      2.88    <-- DIS
     195       6.23599640       6.23206108       6.315E-04      2.89    <-- DIS
     196       6.23380658       6.22995037       6.190E-04      2.91    <-- DIS
     197       6.23166748       6.22788859       6.068E-04      2.92    <-- DIS
     198       6.22957786       6.22587454       5.948E-04      2.93    <-- DIS
     199       6.22753652       6.22390707       5.831E-04      2.95    <-- DIS
     200       6.22554229       6.22198503       5.717E-04      2.96    <-- DIS
     201       6.22359401       6.22010734       5.605E-04      2.98    <-- DIS
     202       6.22169058       6.21827291       5.496E-04      2.99    <-- DIS
     203       6.21983091       6.21648070       5.389E-04      3.01    <-- DIS
     204       6.21801395       6.21472970       5.285E-04      3.02    <-- DIS
     205       6.21623867       6.21301892       5.182E-04      3.03    <-- DIS
     206       6.21450406       6.21134739       5.082E-04      3.05    <-- DIS
     207       6.21280916       6.20971417       4.984E-04      3.06    <-- DIS
     208       6.21115300       6.20811834       4.888E-04      3.08    <-- DIS
     209       6.20953467       6.20655901       4.794E-04      3.09    <-- DIS
     210       6.20795325       6.20503531       4.703E-04      3.11    <-- DIS
     211       6.20640788       6.20354640       4.613E-04      3.12    <-- DIS
     212       6.20489770       6.20209144       4.525E-04      3.14    <-- DIS
     213       6.20342186       6.20066964       4.439E-04      3.15    <-- DIS
     214       6.20197956       6.19928021       4.354E-04      3.16    <-- DIS
     215       6.20057001       6.19792237       4.272E-04      3.18    <-- DIS
     216       6.19919242       6.19659540       4.191E-04      3.19    <-- DIS
     217       6.19784605       6.19529856       4.112E-04      3.21    <-- DIS
     218       6.19653015       6.19403113       4.035E-04      3.22    <-- DIS
     219       6.19524403       6.19279244       3.959E-04      3.24    <-- DIS
     220       6.19398697       6.19158181       3.885E-04      3.25    <-- DIS
     221       6.19275829       6.19039858       3.812E-04      3.26    <-- DIS
     222       6.19155734       6.18924210       3.741E-04      3.28    <-- DIS
     223       6.19038345       6.18811176       3.671E-04      3.29    <-- DIS
     224       6.18923602       6.18700695       3.603E-04      3.31    <-- DIS
     225       6.18811440       6.18592707       3.536E-04      3.32    <-- DIS
     226       6.18701802       6.18487154       3.471E-04      3.34    <-- DIS
     227       6.18594627       6.18383979       3.406E-04      3.35    <-- DIS
     228       6.18489859       6.18283129       3.344E-04      3.40    <-- DIS
     229       6.18387442       6.18184547       3.282E-04      3.41    <-- DIS
     230       6.18287322       6.18088183       3.222E-04      3.43    <-- DIS
     231       6.18189446       6.17993985       3.163E-04      3.44    <-- DIS
     232       6.18093761       6.17901903       3.105E-04      3.45    <-- DIS
     233       6.18000218       6.17811888       3.048E-04      3.47    <-- DIS
     234       6.17908767       6.17723893       2.993E-04      3.48    <-- DIS
     235       6.17819360       6.17637871       2.938E-04      3.50    <-- DIS
     236       6.17731950       6.17553777       2.885E-04      3.51    <-- DIS
     237       6.17646491       6.17471566       2.833E-04      3.53    <-- DIS
     238       6.17562939       6.17391196       2.782E-04      3.54    <-- DIS
     239       6.17481250       6.17312625       2.732E-04      3.56    <-- DIS
     240       6.17401381       6.17235810       2.682E-04      3.57    <-- DIS
     241       6.17323291       6.17160713       2.634E-04      3.58    <-- DIS
     242       6.17246939       6.17087294       2.587E-04      3.60    <-- DIS
     243       6.17172286       6.17015514       2.541E-04      3.61    <-- DIS
     244       6.17099292       6.16945336       2.495E-04      3.63    <-- DIS
     245       6.17027921       6.16876725       2.451E-04      3.64    <-- DIS
     246       6.16958136       6.16809643       2.407E-04      3.66    <-- DIS
     247       6.16889899       6.16744057       2.365E-04      3.67    <-- DIS
     248       6.16823177       6.16679933       2.323E-04      3.68    <-- DIS
     249       6.16757935       6.16617237       2.282E-04      3.70    <-- DIS
     250       6.16694140       6.16555937       2.242E-04      3.71    <-- DIS
     251       6.16631758       6.16496002       2.202E-04      3.73    <-- DIS
     252       6.16570758       6.16437400       2.163E-04      3.74    <-- DIS
     253       6.16511108       6.16380101       2.125E-04      3.76    <-- DIS
     254       6.16452779       6.16324077       2.088E-04      3.77    <-- DIS
     255       6.16395740       6.16269297       2.052E-04      3.78    <-- DIS
     256       6.16339963       6.16215735       2.016E-04      3.80    <-- DIS
     257       6.16285418       6.16163363       1.981E-04      3.81    <-- DIS
     258       6.16232079       6.16112153       1.946E-04      3.83    <-- DIS
     259       6.16179918       6.16062081       1.913E-04      3.84    <-- DIS
     260       6.16128909       6.16013119       1.880E-04      3.86    <-- DIS
     261       6.16079025       6.15965244       1.847E-04      3.87    <-- DIS
     262       6.16030242       6.15918430       1.815E-04      3.89    <-- DIS
     263       6.15982535       6.15872655       1.784E-04      3.90    <-- DIS
     264       6.15935880       6.15827894       1.754E-04      3.91    <-- DIS
     265       6.15890254       6.15784126       1.723E-04      3.93    <-- DIS
     266       6.15845632       6.15741327       1.694E-04      3.94    <-- DIS
     267       6.15801994       6.15699476       1.665E-04      3.96    <-- DIS
     268       6.15759317       6.15658551       1.637E-04      3.97    <-- DIS
     269       6.15717579       6.15618533       1.609E-04      3.99    <-- DIS
     270       6.15676759       6.15579401       1.582E-04      4.00    <-- DIS
     271       6.15636838       6.15541135       1.555E-04      4.01    <-- DIS
     272       6.15597794       6.15503715       1.528E-04      4.03    <-- DIS
     273       6.15559609       6.15467123       1.503E-04      4.04    <-- DIS
     274       6.15522264       6.15431341       1.477E-04      4.06    <-- DIS
     275       6.15485739       6.15396350       1.453E-04      4.07    <-- DIS
     276       6.15450017       6.15362132       1.428E-04      4.09    <-- DIS
     277       6.15415079       6.15328671       1.404E-04      4.10    <-- DIS
     278       6.15380908       6.15295949       1.381E-04      4.11    <-- DIS
     279       6.15347488       6.15263950       1.358E-04      4.13    <-- DIS
     280       6.15314801       6.15232659       1.335E-04      4.14    <-- DIS
     281       6.15282832       6.15202058       1.313E-04      4.16    <-- DIS
     282       6.15251563       6.15172134       1.291E-04      4.17    <-- DIS
     283       6.15220981       6.15142870       1.270E-04      4.19    <-- DIS
     284       6.15191069       6.15114253       1.249E-04      4.20    <-- DIS
     285       6.15161812       6.15086267       1.228E-04      4.21    <-- DIS
     286       6.15133197       6.15058899       1.208E-04      4.25    <-- DIS
     287       6.15105210       6.15032135       1.188E-04      4.27    <-- DIS
     288       6.15077835       6.15005962       1.169E-04      4.28    <-- DIS
     289       6.15051059       6.14980366       1.150E-04      4.29    <-- DIS
     290       6.15024871       6.14955335       1.131E-04      4.31    <-- DIS
     291       6.14999255       6.14930856       1.112E-04      4.32    <-- DIS
     292       6.14974200       6.14906918       1.094E-04      4.34    <-- DIS
     293       6.14949694       6.14883507       1.076E-04      4.35    <-- DIS
     294       6.14925724       6.14860612       1.059E-04      4.37    <-- DIS
     295       6.14902278       6.14838223       1.042E-04      4.38    <-- DIS
     296       6.14879345       6.14816327       1.025E-04      4.40    <-- DIS
     297       6.14856914       6.14794914       1.008E-04      4.41    <-- DIS
     298       6.14834973       6.14773973       9.922E-05      4.43    <-- DIS
     299       6.14813512       6.14753493       9.763E-05      4.44    <-- DIS
     300       6.14792519       6.14733466       9.606E-05      4.46    <-- DIS
     301       6.14771986       6.14713879       9.453E-05      4.47    <-- DIS
     302       6.14751901       6.14694724       9.302E-05      4.49    <-- DIS
     303       6.14732255       6.14675992       9.153E-05      4.50    <-- DIS
     304       6.14713038       6.14657672       9.008E-05      4.52    <-- DIS
     305       6.14694241       6.14639755       8.865E-05      4.53    <-- DIS
     306       6.14675854       6.14622234       8.724E-05      4.54    <-- DIS
     307       6.14657869       6.14605099       8.586E-05      4.56    <-- DIS
     308       6.14640276       6.14588341       8.450E-05      4.57    <-- DIS
     309       6.14623067       6.14571952       8.317E-05      4.59    <-- DIS
     310       6.14606234       6.14555924       8.186E-05      4.60    <-- DIS
     311       6.14589768       6.14540250       8.058E-05      4.62    <-- DIS
     312       6.14573661       6.14524920       7.931E-05      4.63    <-- DIS
     313       6.14557906       6.14509929       7.807E-05      4.65    <-- DIS
     314       6.14542494       6.14495267       7.685E-05      4.66    <-- DIS
     315       6.14527418       6.14480929       7.566E-05      4.68    <-- DIS
     316       6.14512670       6.14466906       7.448E-05      4.69    <-- DIS
     317       6.14498244       6.14453192       7.332E-05      4.70    <-- DIS
     318       6.14484133       6.14439780       7.219E-05      4.72    <-- DIS
     319       6.14470329       6.14426663       7.107E-05      4.73    <-- DIS
     320       6.14456826       6.14413835       6.997E-05      4.75    <-- DIS
     321       6.14443617       6.14401290       6.889E-05      4.76    <-- DIS
     322       6.14430696       6.14389021       6.783E-05      4.78    <-- DIS
     323       6.14418056       6.14377022       6.679E-05      4.79    <-- DIS
     324       6.14405691       6.14365287       6.577E-05      4.81    <-- DIS
     325       6.14393595       6.14353810       6.476E-05      4.82    <-- DIS
     326       6.14381763       6.14342586       6.377E-05      4.83    <-- DIS
     327       6.14370189       6.14331610       6.280E-05      4.85    <-- DIS
     328       6.14358866       6.14320875       6.184E-05      4.86    <-- DIS
     329       6.14347789       6.14310376       6.090E-05      4.88    <-- DIS
     330       6.14336954       6.14300109       5.998E-05      4.89    <-- DIS
     331       6.14326354       6.14290067       5.907E-05      4.91    <-- DIS
     332       6.14315985       6.14280247       5.818E-05      4.92    <-- DIS
     333       6.14305841       6.14270642       5.730E-05      4.94    <-- DIS
     334       6.14295918       6.14261249       5.644E-05      4.95    <-- DIS
     335       6.14286210       6.14252063       5.559E-05      4.97    <-- DIS
     336       6.14276714       6.14243079       5.476E-05      4.98    <-- DIS
     337       6.14267424       6.14234293       5.394E-05      5.00    <-- DIS
     338       6.14258336       6.14225701       5.313E-05      5.01    <-- DIS
     339       6.14249445       6.14217297       5.234E-05      5.02    <-- DIS
     340       6.14240747       6.14209079       5.156E-05      5.04    <-- DIS
     341       6.14232238       6.14201041       5.079E-05      5.05    <-- DIS
     342       6.14223914       6.14193180       5.004E-05      5.07    <-- DIS
     343       6.14215771       6.14185492       4.930E-05      5.08    <-- DIS
     344       6.14207805       6.14177974       4.857E-05      5.10    <-- DIS
     345       6.14200011       6.14170621       4.785E-05      5.11    <-- DIS
     346       6.14192387       6.14163430       4.715E-05      5.13    <-- DIS
     347       6.14184928       6.14156397       4.646E-05      5.14    <-- DIS
     348       6.14177631       6.14149519       4.577E-05      5.16    <-- DIS
     349       6.14170492       6.14142792       4.510E-05      5.17    <-- DIS
     350       6.14163508       6.14136214       4.444E-05      5.19    <-- DIS
     351       6.14156676       6.14129780       4.379E-05      5.20    <-- DIS
     352       6.14149991       6.14123488       4.316E-05      5.21    <-- DIS
     353       6.14143452       6.14117334       4.253E-05      5.23    <-- DIS
     354       6.14137054       6.14111316       4.191E-05      5.24    <-- DIS
     355       6.14130795       6.14105430       4.130E-05      5.26    <-- DIS
     356       6.14124671       6.14099674       4.071E-05      5.27    <-- DIS
     357       6.14118681       6.14094045       4.012E-05      5.29    <-- DIS
     358       6.14112820       6.14088539       3.954E-05      5.30    <-- DIS
     359       6.14107086       6.14083155       3.897E-05      5.32    <-- DIS
     360       6.14101476       6.14077889       3.841E-05      5.33    <-- DIS
     361       6.14095987       6.14072739       3.786E-05      5.34    <-- DIS
     362       6.14090617       6.14067703       3.732E-05      5.36    <-- DIS
     363       6.14085364       6.14062777       3.678E-05      5.37    <-- DIS
     364       6.14080224       6.14057960       3.626E-05      5.39    <-- DIS
     365       6.14075196       6.14053249       3.574E-05      5.40    <-- DIS
     366       6.14070276       6.14048641       3.523E-05      5.42    <-- DIS
     367       6.14065462       6.14044135       3.473E-05      5.43    <-- DIS
     368       6.14060753       6.14039728       3.424E-05      5.45    <-- DIS
     369       6.14056145       6.14035418       3.376E-05      5.46    <-- DIS
     370       6.14051637       6.14031203       3.328E-05      5.47    <-- DIS
     371       6.14047227       6.14027081       3.281E-05      5.49    <-- DIS
     372       6.14042912       6.14023050       3.235E-05      5.50    <-- DIS
     373       6.14038690       6.14019107       3.189E-05      5.52    <-- DIS
     374       6.14034559       6.14015251       3.144E-05      5.53    <-- DIS
     375       6.14030517       6.14011480       3.100E-05      5.55    <-- DIS
     376       6.14026563       6.14007792       3.057E-05      5.56    <-- DIS
     377       6.14022693       6.14004185       3.014E-05      5.57    <-- DIS
     378       6.14018908       6.14000658       2.972E-05      5.59    <-- DIS
     379       6.14015204       6.13997208       2.931E-05      5.64    <-- DIS
     380       6.14011580       6.13993835       2.890E-05      5.65    <-- DIS
     381       6.14008034       6.13990535       2.850E-05      5.67    <-- DIS
     382       6.14004565       6.13987308       2.811E-05      5.68    <-- DIS
     383       6.14001170       6.13984152       2.772E-05      5.70    <-- DIS
     384       6.13997849       6.13981066       2.733E-05      5.71    <-- DIS
     385       6.13994599       6.13978048       2.696E-05      5.73    <-- DIS
     386       6.13991419       6.13975096       2.659E-05      5.74    <-- DIS
     387       6.13988308       6.13972209       2.622E-05      5.76    <-- DIS
     388       6.13985263       6.13969385       2.586E-05      5.77    <-- DIS
     389       6.13982284       6.13966624       2.551E-05      5.78    <-- DIS
     390       6.13979370       6.13963924       2.516E-05      5.80    <-- DIS
     391       6.13976518       6.13961283       2.481E-05      5.81    <-- DIS
     392       6.13973727       6.13958700       2.448E-05      5.83    <-- DIS
     393       6.13970996       6.13956174       2.414E-05      5.84    <-- DIS
     394       6.13968324       6.13953703       2.381E-05      5.86    <-- DIS
     395       6.13965710       6.13951287       2.349E-05      5.87    <-- DIS
     396       6.13963152       6.13948925       2.317E-05      5.89    <-- DIS
     397       6.13960648       6.13946614       2.286E-05      5.90    <-- DIS
     398       6.13958199       6.13944354       2.255E-05      5.91    <-- DIS
     399       6.13955802       6.13942144       2.225E-05      5.93    <-- DIS
     400       6.13953456       6.13939982       2.195E-05      5.94    <-- DIS
     401       6.13951161       6.13937869       2.165E-05      5.96    <-- DIS
     402       6.13948915       6.13935801       2.136E-05      5.97    <-- DIS
     403       6.13946717       6.13933780       2.107E-05      5.99    <-- DIS
     404       6.13944567       6.13931802       2.079E-05      6.00    <-- DIS
     405       6.13942462       6.13929869       2.051E-05      6.01    <-- DIS
     406       6.13940403       6.13927977       2.024E-05      6.03    <-- DIS
     407       6.13938388       6.13926128       1.997E-05      6.04    <-- DIS
     408       6.13936416       6.13924319       1.970E-05      6.06    <-- DIS
     409       6.13934486       6.13922550       1.944E-05      6.07    <-- DIS
     410       6.13932597       6.13920820       1.918E-05      6.09    <-- DIS
     411       6.13930749       6.13919128       1.893E-05      6.10    <-- DIS
     412       6.13928941       6.13917473       1.868E-05      6.11    <-- DIS
     413       6.13927171       6.13915855       1.843E-05      6.13    <-- DIS
     414       6.13925439       6.13914273       1.819E-05      6.14    <-- DIS
     415       6.13923744       6.13912725       1.795E-05      6.16    <-- DIS
     416       6.13922085       6.13911211       1.771E-05      6.17    <-- DIS
     417       6.13920461       6.13909731       1.748E-05      6.19    <-- DIS
     418       6.13918873       6.13908283       1.725E-05      6.20    <-- DIS
     419       6.13917318       6.13906867       1.702E-05      6.21    <-- DIS
     420       6.13915796       6.13905483       1.680E-05      6.23    <-- DIS
     421       6.13914307       6.13904128       1.658E-05      6.24    <-- DIS
     422       6.13912850       6.13902804       1.636E-05      6.26    <-- DIS
     423       6.13911424       6.13901509       1.615E-05      6.27    <-- DIS
     424       6.13910028       6.13900242       1.594E-05      6.29    <-- DIS
     425       6.13908662       6.13899003       1.573E-05      6.30    <-- DIS
     426       6.13907325       6.13897792       1.553E-05      6.32    <-- DIS
     427       6.13906016       6.13896607       1.533E-05      6.33    <-- DIS
     428       6.13904735       6.13895448       1.513E-05      6.34    <-- DIS
     429       6.13903482       6.13894315       1.493E-05      6.36    <-- DIS
     430       6.13902255       6.13893206       1.474E-05      6.37    <-- DIS
     431       6.13901054       6.13892123       1.455E-05      6.39    <-- DIS
     432       6.13899879       6.13891063       1.436E-05      6.40    <-- DIS
     433       6.13898729       6.13890026       1.418E-05      6.42    <-- DIS
     434       6.13897603       6.13889012       1.399E-05      6.43    <-- DIS
     435       6.13896501       6.13888020       1.381E-05      6.44    <-- DIS
     436       6.13895423       6.13887051       1.364E-05      6.46    <-- DIS
     437       6.13894367       6.13886102       1.346E-05      6.51    <-- DIS
     438       6.13893334       6.13885175       1.329E-05      6.53    <-- DIS
     439       6.13892322       6.13884268       1.312E-05      6.54    <-- DIS
     440       6.13891332       6.13883381       1.295E-05      6.56    <-- DIS
     441       6.13890363       6.13882513       1.279E-05      6.57    <-- DIS
     442       6.13889415       6.13881665       1.262E-05      6.58    <-- DIS
     443       6.13888487       6.13880835       1.246E-05      6.60    <-- DIS
     444       6.13887578       6.13880024       1.231E-05      6.61    <-- DIS
     445       6.13886688       6.13879230       1.215E-05      6.63    <-- DIS
     446       6.13885818       6.13878454       1.200E-05      6.64    <-- DIS
     447       6.13884965       6.13877695       1.184E-05      6.66    <-- DIS
     448       6.13884131       6.13876952       1.169E-05      6.67    <-- DIS
     449       6.13883314       6.13876226       1.155E-05      6.68    <-- DIS
     450       6.13882515       6.13875516       1.140E-05      6.70    <-- DIS
     451       6.13881732       6.13874822       1.126E-05      6.71    <-- DIS
     452       6.13880966       6.13874143       1.111E-05      6.73    <-- DIS
     453       6.13880216       6.13873479       1.097E-05      6.74    <-- DIS
     454       6.13879482       6.13872829       1.084E-05      6.76    <-- DIS
     455       6.13878763       6.13872194       1.070E-05      6.77    <-- DIS
     456       6.13878059       6.13871573       1.057E-05      6.78    <-- DIS
     457       6.13877370       6.13870965       1.043E-05      6.80    <-- DIS
     458       6.13876696       6.13870371       1.030E-05      6.81    <-- DIS
     459       6.13876036       6.13869790       1.018E-05      6.83    <-- DIS
     460       6.13875390       6.13869221       1.005E-05      6.84    <-- DIS
     461       6.13874757       6.13868666       9.923E-06      6.86    <-- DIS
     462       6.13874137       6.13868122       9.799E-06      6.87    <-- DIS
     463       6.13873531       6.13867590       9.677E-06      6.88    <-- DIS
     464       6.13872937       6.13867071       9.557E-06      6.90    <-- DIS
     465       6.13872356       6.13866562       9.438E-06      6.91    <-- DIS
     466       6.13871787       6.13866065       9.321E-06      6.93    <-- DIS
     467       6.13871229       6.13865578       9.205E-06      6.94    <-- DIS
     468       6.13870684       6.13865103       9.091E-06      6.96    <-- DIS
     469       6.13870149       6.13864638       8.979E-06      6.97    <-- DIS
     470       6.13869626       6.13864183       8.868E-06      6.99    <-- DIS
     471       6.13869114       6.13863738       8.758E-06      7.00    <-- DIS
     472       6.13868613       6.13863303       8.650E-06      7.01    <-- DIS
     473       6.13868122       6.13862877       8.544E-06      7.03    <-- DIS
     474       6.13867641       6.13862461       8.438E-06      7.04    <-- DIS
     475       6.13867170       6.13862054       8.334E-06      7.06    <-- DIS
     476       6.13866709       6.13861656       8.232E-06      7.07    <-- DIS
     477       6.13866258       6.13861267       8.131E-06      7.09    <-- DIS
     478       6.13865816       6.13860886       8.031E-06      7.10    <-- DIS
     479       6.13865383       6.13860514       7.933E-06      7.12    <-- DIS
     480       6.13864960       6.13860150       7.836E-06      7.13    <-- DIS
     481       6.13864545       6.13859793       7.740E-06      7.14    <-- DIS
     482       6.13864138       6.13859445       7.645E-06      7.16    <-- DIS
     483       6.13863740       6.13859105       7.552E-06      7.17    <-- DIS
     484       6.13863350       6.13858771       7.459E-06      7.19    <-- DIS
     485       6.13862969       6.13858446       7.369E-06      7.20    <-- DIS
     486       6.13862595       6.13858127       7.279E-06      7.22    <-- DIS
     487       6.13862229       6.13857815       7.190E-06      7.23    <-- DIS
     488       6.13861871       6.13857511       7.103E-06      7.24    <-- DIS
     489       6.13861520       6.13857213       7.016E-06      7.26    <-- DIS
     490       6.13861176       6.13856921       6.931E-06      7.27    <-- DIS
     491       6.13860839       6.13856636       6.847E-06      7.29    <-- DIS
     492       6.13860509       6.13856357       6.764E-06      7.30    <-- DIS
     493       6.13860186       6.13856084       6.682E-06      7.32    <-- DIS
     494       6.13859870       6.13855818       6.601E-06      7.33    <-- DIS
     495       6.13859560       6.13855557       6.521E-06      7.35    <-- DIS
     496       6.13859257       6.13855302       6.443E-06      7.36    <-- DIS
     497       6.13858960       6.13855052       6.365E-06      7.37    <-- DIS
     498       6.13858668       6.13854809       6.288E-06      7.39    <-- DIS
     499       6.13858383       6.13854570       6.212E-06      7.40    <-- DIS
     500       6.13858104       6.13854337       6.137E-06      7.42    <-- DIS
     501       6.13857830       6.13854108       6.063E-06      7.43    <-- DIS
     502       6.13857562       6.13853885       5.991E-06      7.45    <-- DIS
     503       6.13857300       6.13853667       5.918E-06      7.46    <-- DIS
     504       6.13857043       6.13853453       5.847E-06      7.48    <-- DIS
     505       6.13856791       6.13853245       5.777E-06      7.49    <-- DIS
     506       6.13856544       6.13853040       5.708E-06      7.51    <-- DIS
     507       6.13856302       6.13852841       5.640E-06      7.52    <-- DIS
     508       6.13856066       6.13852645       5.572E-06      7.53    <-- DIS
     509       6.13855834       6.13852454       5.505E-06      7.55    <-- DIS
     510       6.13855607       6.13852268       5.439E-06      7.56    <-- DIS
     511       6.13855384       6.13852085       5.374E-06      7.58    <-- DIS
     512       6.13855166       6.13851906       5.310E-06      7.59    <-- DIS
     513       6.13854952       6.13851731       5.247E-06      7.61    <-- DIS
     514       6.13854743       6.13851560       5.184E-06      7.62    <-- DIS
     515       6.13854538       6.13851393       5.122E-06      7.63    <-- DIS
     516       6.13854337       6.13851230       5.061E-06      7.65    <-- DIS
     517       6.13854140       6.13851070       5.001E-06      7.66    <-- DIS
     518       6.13853947       6.13850914       4.942E-06      7.68    <-- DIS
     519       6.13853758       6.13850761       4.883E-06      7.69    <-- DIS
     520       6.13853573       6.13850611       4.825E-06      7.71    <-- DIS
     521       6.13853391       6.13850465       4.768E-06      7.72    <-- DIS
     522       6.13853214       6.13850322       4.711E-06      7.73    <-- DIS
     523       6.13853039       6.13850182       4.655E-06      7.75    <-- DIS
     524       6.13852869       6.13850045       4.600E-06      7.76    <-- DIS
     525       6.13852701       6.13849911       4.546E-06      7.78    <-- DIS
     526       6.13852537       6.13849780       4.492E-06      7.79    <-- DIS
     527       6.13852377       6.13849652       4.439E-06      7.81    <-- DIS
     528       6.13852219       6.13849527       4.386E-06      7.82    <-- DIS
     529       6.13852065       6.13849405       4.334E-06      7.84    <-- DIS
     530       6.13851914       6.13849285       4.283E-06      7.88    <-- DIS
     531       6.13851766       6.13849168       4.233E-06      7.90    <-- DIS
     532       6.13851621       6.13849053       4.183E-06      7.91    <-- DIS
     533       6.13851478       6.13848941       4.133E-06      7.93    <-- DIS
     534       6.13851339       6.13848831       4.085E-06      7.94    <-- DIS
     535       6.13851202       6.13848724       4.037E-06      7.95    <-- DIS
     536       6.13851068       6.13848619       3.989E-06      7.97    <-- DIS
     537       6.13850937       6.13848517       3.942E-06      7.98    <-- DIS
     538       6.13850808       6.13848417       3.896E-06      8.00    <-- DIS
     539       6.13850682       6.13848319       3.850E-06      8.01    <-- DIS
     540       6.13850558       6.13848223       3.805E-06      8.03    <-- DIS
     541       6.13850437       6.13848129       3.760E-06      8.04    <-- DIS
     542       6.13850318       6.13848037       3.716E-06      8.05    <-- DIS
     543       6.13850202       6.13847948       3.673E-06      8.07    <-- DIS
     544       6.13850088       6.13847860       3.630E-06      8.08    <-- DIS
     545       6.13849976       6.13847774       3.587E-06      8.10    <-- DIS
     546       6.13849866       6.13847690       3.545E-06      8.11    <-- DIS
     547       6.13849759       6.13847608       3.504E-06      8.13    <-- DIS
     548       6.13849653       6.13847528       3.463E-06      8.14    <-- DIS
     549       6.13849550       6.13847449       3.422E-06      8.15    <-- DIS
     550       6.13849449       6.13847372       3.382E-06      8.17    <-- DIS
     551       6.13849349       6.13847297       3.343E-06      8.18    <-- DIS
     552       6.13849252       6.13847224       3.304E-06      8.20    <-- DIS
     553       6.13849156       6.13847152       3.265E-06      8.21    <-- DIS
     554       6.13849063       6.13847082       3.227E-06      8.23    <-- DIS
     555       6.13848971       6.13847013       3.189E-06      8.24    <-- DIS
     556       6.13848881       6.13846946       3.152E-06      8.26    <-- DIS
     557       6.13848793       6.13846880       3.116E-06      8.27    <-- DIS
     558       6.13848706       6.13846816       3.079E-06      8.28    <-- DIS
     559       6.13848621       6.13846753       3.044E-06      8.30    <-- DIS
     560       6.13848538       6.13846691       3.008E-06      8.31    <-- DIS
     561       6.13848456       6.13846631       2.973E-06      8.33    <-- DIS
     562       6.13848376       6.13846572       2.939E-06      8.34    <-- DIS
     563       6.13848298       6.13846515       2.905E-06      8.35    <-- DIS
     564       6.13848221       6.13846459       2.871E-06      8.37    <-- DIS
     565       6.13848145       6.13846404       2.838E-06      8.38    <-- DIS
     566       6.13848071       6.13846350       2.805E-06      8.40    <-- DIS
     567       6.13847999       6.13846297       2.772E-06      8.41    <-- DIS
     568       6.13847928       6.13846246       2.740E-06      8.43    <-- DIS
     569       6.13847858       6.13846195       2.708E-06      8.44    <-- DIS
     570       6.13847789       6.13846146       2.677E-06      8.45    <-- DIS
     571       6.13847722       6.13846098       2.646E-06      8.47    <-- DIS
     572       6.13847656       6.13846051       2.615E-06      8.48    <-- DIS
     573       6.13847592       6.13846005       2.585E-06      8.50    <-- DIS
     574       6.13847528       6.13845960       2.555E-06      8.51    <-- DIS
     575       6.13847466       6.13845916       2.526E-06      8.53    <-- DIS
     576       6.13847405       6.13845872       2.496E-06      8.54    <-- DIS
     577       6.13847345       6.13845830       2.468E-06      8.56    <-- DIS
     578       6.13847286       6.13845789       2.439E-06      8.57    <-- DIS
     579       6.13847229       6.13845749       2.411E-06      8.58    <-- DIS
     580       6.13847172       6.13845709       2.383E-06      8.60    <-- DIS
     581       6.13847117       6.13845671       2.356E-06      8.61    <-- DIS
     582       6.13847062       6.13845633       2.329E-06      8.63    <-- DIS
     583       6.13847009       6.13845596       2.302E-06      8.64    <-- DIS
     584       6.13846957       6.13845560       2.275E-06      8.66    <-- DIS
     585       6.13846905       6.13845525       2.249E-06      8.67    <-- DIS
     586       6.13846855       6.13845490       2.223E-06      8.68    <-- DIS
     587       6.13846805       6.13845456       2.198E-06      8.70    <-- DIS
     588       6.13846757       6.13845423       2.172E-06      8.76    <-- DIS
     589       6.13846709       6.13845391       2.147E-06      8.77    <-- DIS
     590       6.13846662       6.13845359       2.123E-06      8.78    <-- DIS
     591       6.13846616       6.13845328       2.098E-06      8.80    <-- DIS
     592       6.13846571       6.13845298       2.074E-06      8.81    <-- DIS
     593       6.13846527       6.13845269       2.050E-06      8.83    <-- DIS
     594       6.13846484       6.13845240       2.027E-06      8.84    <-- DIS
     595       6.13846441       6.13845211       2.004E-06      8.86    <-- DIS
     596       6.13846400       6.13845184       1.981E-06      8.87    <-- DIS
     597       6.13846359       6.13845157       1.958E-06      8.88    <-- DIS
     598       6.13846318       6.13845130       1.935E-06      8.90    <-- DIS
     599       6.13846279       6.13845104       1.913E-06      8.91    <-- DIS
     600       6.13846240       6.13845079       1.891E-06      8.93    <-- DIS
     601       6.13846202       6.13845054       1.870E-06      8.94    <-- DIS
     602       6.13846165       6.13845030       1.848E-06      8.95    <-- DIS
     603       6.13846128       6.13845006       1.827E-06      8.97    <-- DIS
     604       6.13846092       6.13844983       1.806E-06      8.98    <-- DIS
     605       6.13846057       6.13844960       1.786E-06      9.00    <-- DIS
     606       6.13846022       6.13844938       1.765E-06      9.01    <-- DIS
     607       6.13845988       6.13844917       1.745E-06      9.03    <-- DIS
     608       6.13845954       6.13844895       1.725E-06      9.04    <-- DIS
     609       6.13845921       6.13844875       1.705E-06      9.05    <-- DIS
     610       6.13845889       6.13844854       1.686E-06      9.07    <-- DIS
     611       6.13845858       6.13844835       1.667E-06      9.08    <-- DIS
     612       6.13845827       6.13844815       1.648E-06      9.10    <-- DIS
     613       6.13845796       6.13844796       1.629E-06      9.11    <-- DIS
     614       6.13845766       6.13844778       1.610E-06      9.12    <-- DIS
     615       6.13845737       6.13844759       1.592E-06      9.14    <-- DIS
     616       6.13845708       6.13844742       1.574E-06      9.15    <-- DIS
     617       6.13845679       6.13844724       1.556E-06      9.17    <-- DIS
     618       6.13845651       6.13844707       1.538E-06      9.18    <-- DIS
     619       6.13845624       6.13844691       1.520E-06      9.19    <-- DIS
     620       6.13845597       6.13844674       1.503E-06      9.21    <-- DIS
     621       6.13845571       6.13844659       1.486E-06      9.22    <-- DIS
     622       6.13845545       6.13844643       1.469E-06      9.24    <-- DIS
     623       6.13845519       6.13844628       1.452E-06      9.25    <-- DIS
     624       6.13845494       6.13844613       1.436E-06      9.26    <-- DIS
     625       6.13845470       6.13844598       1.419E-06      9.28    <-- DIS
     626       6.13845446       6.13844584       1.403E-06      9.29    <-- DIS
     627       6.13845422       6.13844570       1.387E-06      9.31    <-- DIS
     628       6.13845399       6.13844557       1.372E-06      9.32    <-- DIS
     629       6.13845376       6.13844543       1.356E-06      9.33    <-- DIS
     630       6.13845353       6.13844530       1.341E-06      9.35    <-- DIS
     631       6.13845331       6.13844518       1.325E-06      9.36    <-- DIS
     632       6.13845309       6.13844505       1.310E-06      9.38    <-- DIS
     633       6.13845288       6.13844493       1.295E-06      9.39    <-- DIS
     634       6.13845267       6.13844481       1.281E-06      9.40    <-- DIS
     635       6.13845247       6.13844469       1.266E-06      9.42    <-- DIS
     636       6.13845226       6.13844458       1.252E-06      9.43    <-- DIS
     637       6.13845206       6.13844447       1.238E-06      9.45    <-- DIS
     638       6.13845187       6.13844436       1.224E-06      9.46    <-- DIS
     639       6.13845168       6.13844425       1.210E-06      9.48    <-- DIS
     640       6.13845149       6.13844415       1.196E-06      9.49    <-- DIS
     641       6.13845130       6.13844404       1.182E-06      9.50    <-- DIS
     642       6.13845112       6.13844395       1.169E-06      9.52    <-- DIS
     643       6.13845094       6.13844385       1.156E-06      9.53    <-- DIS
     644       6.13845077       6.13844375       1.143E-06      9.55    <-- DIS
     645       6.13845059       6.13844366       1.130E-06      9.56    <-- DIS
     646       6.13845042       6.13844357       1.117E-06      9.57    <-- DIS
     647       6.13845026       6.13844348       1.104E-06      9.59    <-- DIS
     648       6.13845009       6.13844339       1.092E-06      9.60    <-- DIS
     649       6.13844993       6.13844330       1.079E-06      9.62    <-- DIS
     650       6.13844977       6.13844322       1.067E-06      9.63    <-- DIS
     651       6.13844962       6.13844314       1.055E-06      9.64    <-- DIS
     652       6.13844946       6.13844306       1.043E-06      9.66    <-- DIS
     653       6.13844931       6.13844298       1.031E-06      9.67    <-- DIS
     654       6.13844916       6.13844290       1.020E-06      9.69    <-- DIS
     655       6.13844902       6.13844283       1.008E-06      9.70    <-- DIS
     656       6.13844887       6.13844276       9.967E-07      9.71    <-- DIS
     657       6.13844873       6.13844268       9.855E-07      9.73    <-- DIS
     658       6.13844859       6.13844261       9.743E-07      9.74    <-- DIS
     659       6.13844846       6.13844255       9.633E-07      9.76    <-- DIS
     660       6.13844832       6.13844248       9.524E-07      9.77    <-- DIS
     661       6.13844819       6.13844241       9.417E-07      9.78    <-- DIS
     662       6.13844806       6.13844235       9.310E-07      9.80    <-- DIS
     663       6.13844794       6.13844229       9.205E-07      9.81    <-- DIS
     664       6.13844781       6.13844222       9.101E-07      9.83    <-- DIS
     665       6.13844769       6.13844216       8.999E-07      9.84    <-- DIS
     666       6.13844757       6.13844211       8.897E-07      9.85    <-- DIS
     667       6.13844745       6.13844205       8.797E-07      9.87    <-- DIS
     668       6.13844733       6.13844199       8.697E-07      9.88    <-- DIS
     669       6.13844722       6.13844194       8.599E-07      9.90    <-- DIS
     670       6.13844710       6.13844188       8.502E-07      9.91    <-- DIS
     671       6.13844699       6.13844183       8.406E-07      9.92    <-- DIS
     672       6.13844688       6.13844178       8.312E-07      9.94    <-- DIS
     673       6.13844677       6.13844173       8.218E-07      9.95    <-- DIS
     674       6.13844667       6.13844168       8.125E-07      9.97    <-- DIS
     675       6.13844656       6.13844163       8.034E-07      9.98    <-- DIS
     676       6.13844646       6.13844158       7.943E-07      9.99    <-- DIS
     677       6.13844636       6.13844154       7.854E-07     10.01    <-- DIS
     678       6.13844626       6.13844149       7.765E-07     10.02    <-- DIS
     679       6.13844616       6.13844145       7.678E-07     10.04    <-- DIS
     680       6.13844607       6.13844141       7.591E-07     10.05    <-- DIS
     681       6.13844597       6.13844136       7.506E-07     10.07    <-- DIS
     682       6.13844588       6.13844132       7.421E-07     10.10    <-- DIS
     683       6.13844579       6.13844128       7.337E-07     10.14    <-- DIS
     684       6.13844570       6.13844124       7.255E-07     10.15    <-- DIS
     685       6.13844561       6.13844120       7.173E-07     10.17    <-- DIS
     686       6.13844552       6.13844117       7.092E-07     10.18    <-- DIS
     687       6.13844543       6.13844113       7.013E-07     10.19    <-- DIS
     688       6.13844535       6.13844109       6.934E-07     10.21    <-- DIS
     689       6.13844527       6.13844106       6.856E-07     10.22    <-- DIS
     690       6.13844518       6.13844102       6.779E-07     10.24    <-- DIS
     691       6.13844510       6.13844099       6.702E-07     10.25    <-- DIS
     692       6.13844502       6.13844096       6.627E-07     10.26    <-- DIS
     693       6.13844495       6.13844092       6.553E-07     10.28    <-- DIS
     694       6.13844487       6.13844089       6.479E-07     10.29    <-- DIS
     695       6.13844479       6.13844086       6.406E-07     10.31    <-- DIS
     696       6.13844472       6.13844083       6.334E-07     10.32    <-- DIS
     697       6.13844465       6.13844080       6.263E-07     10.33    <-- DIS
     698       6.13844457       6.13844077       6.192E-07     10.35    <-- DIS
     699       6.13844450       6.13844074       6.123E-07     10.36    <-- DIS
     700       6.13844443       6.13844072       6.054E-07     10.38    <-- DIS
     701       6.13844436       6.13844069       5.986E-07     10.39    <-- DIS
     702       6.13844430       6.13844066       5.919E-07     10.40    <-- DIS
     703       6.13844423       6.13844064       5.852E-07     10.42    <-- DIS
     704       6.13844416       6.13844061       5.787E-07     10.43    <-- DIS
     705       6.13844410       6.13844059       5.722E-07     10.45    <-- DIS
     706       6.13844403       6.13844056       5.657E-07     10.46    <-- DIS
     707       6.13844397       6.13844054       5.594E-07     10.47    <-- DIS
     708       6.13844391       6.13844052       5.531E-07     10.49    <-- DIS
     709       6.13844385       6.13844049       5.469E-07     10.50    <-- DIS
     710       6.13844379       6.13844047       5.408E-07     10.52    <-- DIS
     711       6.13844373       6.13844045       5.347E-07     10.53    <-- DIS
     712       6.13844367       6.13844043       5.287E-07     10.54    <-- DIS
     713       6.13844362       6.13844041       5.228E-07     10.56    <-- DIS
     714       6.13844356       6.13844039       5.169E-07     10.57    <-- DIS
     715       6.13844350       6.13844037       5.111E-07     10.59    <-- DIS
     716       6.13844345       6.13844035       5.054E-07     10.60    <-- DIS
     717       6.13844339       6.13844033       4.997E-07     10.61    <-- DIS
     718       6.13844334       6.13844031       4.941E-07     10.63    <-- DIS
     719       6.13844329       6.13844029       4.886E-07     10.64    <-- DIS
     720       6.13844324       6.13844027       4.831E-07     10.66    <-- DIS
     721       6.13844319       6.13844026       4.777E-07     10.67    <-- DIS
     722       6.13844314       6.13844024       4.723E-07     10.68    <-- DIS
     723       6.13844309       6.13844022       4.670E-07     10.70    <-- DIS
     724       6.13844304       6.13844021       4.618E-07     10.71    <-- DIS
     725       6.13844299       6.13844019       4.566E-07     10.73    <-- DIS
     726       6.13844295       6.13844017       4.515E-07     10.74    <-- DIS
     727       6.13844290       6.13844016       4.464E-07     10.75    <-- DIS
     728       6.13844285       6.13844014       4.414E-07     10.77    <-- DIS
     729       6.13844281       6.13844013       4.365E-07     10.78    <-- DIS
     730       6.13844276       6.13844011       4.316E-07     10.80    <-- DIS
     731       6.13844272       6.13844010       4.268E-07     10.81    <-- DIS
     732       6.13844268       6.13844009       4.220E-07     10.82    <-- DIS
     733       6.13844263       6.13844007       4.173E-07     10.84    <-- DIS
     734       6.13844259       6.13844006       4.126E-07     10.85    <-- DIS
     735       6.13844255       6.13844005       4.080E-07     10.87    <-- DIS
     736       6.13844251       6.13844003       4.034E-07     10.88    <-- DIS
     737       6.13844247       6.13844002       3.989E-07     10.89    <-- DIS
     738       6.13844243       6.13844001       3.944E-07     10.91    <-- DIS
     739       6.13844239       6.13844000       3.900E-07     10.92    <-- DIS
     740       6.13844235       6.13843999       3.856E-07     10.94    <-- DIS
     741       6.13844232       6.13843998       3.813E-07     10.99    <-- DIS
     742       6.13844228       6.13843997       3.771E-07     11.01    <-- DIS
     743       6.13844224       6.13843995       3.728E-07     11.02    <-- DIS
     744       6.13844221       6.13843994       3.687E-07     11.03    <-- DIS
     745       6.13844217       6.13843993       3.645E-07     11.05    <-- DIS
     746       6.13844214       6.13843992       3.605E-07     11.06    <-- DIS
     747       6.13844210       6.13843991       3.564E-07     11.08    <-- DIS
     748       6.13844207       6.13843990       3.525E-07     11.09    <-- DIS
     749       6.13844203       6.13843989       3.485E-07     11.10    <-- DIS
     750       6.13844200       6.13843989       3.446E-07     11.12    <-- DIS
     751       6.13844197       6.13843988       3.408E-07     11.13    <-- DIS
     752       6.13844194       6.13843987       3.369E-07     11.15    <-- DIS
     753       6.13844190       6.13843986       3.332E-07     11.16    <-- DIS
     754       6.13844187       6.13843985       3.295E-07     11.17    <-- DIS
     755       6.13844184       6.13843984       3.258E-07     11.19    <-- DIS
     756       6.13844181       6.13843983       3.221E-07     11.20    <-- DIS
     757       6.13844178       6.13843983       3.185E-07     11.22    <-- DIS
     758       6.13844175       6.13843982       3.150E-07     11.23    <-- DIS
     759       6.13844172       6.13843981       3.115E-07     11.24    <-- DIS
     760       6.13844169       6.13843980       3.080E-07     11.26    <-- DIS
     761       6.13844167       6.13843980       3.045E-07     11.27    <-- DIS
     762       6.13844164       6.13843979       3.011E-07     11.29    <-- DIS
[...]
  Sum of centres and spreads ( -0.000000, -0.000000, -0.000000 )     6.13843947

    965    -0.273E-12     0.0000046183        6.1384394716      36.17  <-- CONV
        O_D=      0.0000000 O_OD=      0.0000000 O_TOT=      6.1384395 <-- SPRD
 Delta: O_D= -0.2726039E-12 O_OD=  0.0000000E+00 O_TOT= -0.2726708E-12 <-- DLTA
 ------------------------------------------------------------------------------
 Cycle:    966
  WF centre and spread    1  ( -0.000000, -0.000000, -0.000000 )     6.13843947
  Sum of centres and spreads ( -0.000000, -0.000000, -0.000000 )     6.13843947

    966    -0.327E-12     0.0000046162        6.1384394716      36.17  <-- CONV
        O_D=      0.0000000 O_OD=      0.0000000 O_TOT=      6.1384395 <-- SPRD
 Delta: O_D= -0.3267352E-12 O_OD=  0.0000000E+00 O_TOT= -0.3268497E-12 <-- DLTA
 ------------------------------------------------------------------------------
 Cycle:    967
  WF centre and spread    1  ( -0.000000, -0.000000, -0.000000 )     6.13843947
  Sum of centres and spreads ( -0.000000, -0.000000, -0.000000 )     6.13843947

    967    -0.542E-13     0.0000046138        6.1384394716      36.17  <-- CONV
        O_D=      0.0000000 O_OD=      0.0000000 O_TOT=      6.1384395 <-- SPRD
 Delta: O_D= -0.5445430E-13 O_OD=  0.0000000E+00 O_TOT= -0.5417888E-13 <-- DLTA
 ------------------------------------------------------------------------------
 Cycle:    968
  WF centre and spread    1  ( -0.000000, -0.000000, -0.000000 )     6.13843947
  Sum of centres and spreads ( -0.000000, -0.000000, -0.000000 )     6.13843947

    968    -0.109E-12     0.0000046134        6.1384394716      36.17  <-- CONV
        O_D=      0.0000000 O_OD=      0.0000000 O_TOT=      6.1384395 <-- SPRD
 Delta: O_D= -0.1088801E-12 O_OD=  0.0000000E+00 O_TOT= -0.1092459E-12 <-- DLTA
 ------------------------------------------------------------------------------
 Cycle:    969
  WF centre and spread    1  ( -0.000000, -0.000000, -0.000000 )     6.13843947
  Sum of centres and spreads ( -0.000000, -0.000000, -0.000000 )     6.13843947

    969    -0.163E-12     0.0000046126        6.1384394716      36.17  <-- CONV
        O_D=      0.0000000 O_OD=      0.0000000 O_TOT=      6.1384395 <-- SPRD
 Delta: O_D= -0.1632395E-12 O_OD=  0.0000000E+00 O_TOT= -0.1625367E-12 <-- DLTA
 ------------------------------------------------------------------------------
 Cycle:    970
  WF centre and spread    1  ( -0.000000, -0.000000, -0.000000 )     6.13843947
  Sum of centres and spreads ( -0.000000, -0.000000, -0.000000 )     6.13843947

    970    -0.218E-12     0.0000046114        6.1384394716      36.17  <-- CONV
        O_D=      0.0000000 O_OD=      0.0000000 O_TOT=      6.1384395 <-- SPRD
 Delta: O_D= -0.2174946E-12 O_OD=  0.0000000E+00 O_TOT= -0.2176037E-12 <-- DLTA
 ------------------------------------------------------------------------------
 Cycle:    971
  WF centre and spread    1  ( -0.000000, -0.000000, -0.000000 )     6.13843947
  Sum of centres and spreads ( -0.000000, -0.000000, -0.000000 )     6.13843947

    971    -0.272E-12     0.0000046098        6.1384394716      36.18  <-- CONV
        O_D=      0.0000000 O_OD=      0.0000000 O_TOT=      6.1384395 <-- SPRD
 Delta: O_D= -0.2716078E-12 O_OD=  0.0000000E+00 O_TOT= -0.2717826E-12 <-- DLTA
 ------------------------------------------------------------------------------
 Cycle:    972
  WF centre and spread    1  ( -0.000000, -0.000000, -0.000000 )     6.13843947
  Sum of centres and spreads ( -0.000000, -0.000000, -0.000000 )     6.13843947

    972    -0.326E-12     0.0000046078        6.1384394716      36.18  <-- CONV
        O_D=      0.0000000 O_OD=      0.0000000 O_TOT=      6.1384395 <-- SPRD
 Delta: O_D= -0.3255414E-12 O_OD=  0.0000000E+00 O_TOT= -0.3259615E-12 <-- DLTA
 ------------------------------------------------------------------------------
 Cycle:    973
  WF centre and spread    1  ( -0.000000, -0.000000, -0.000000 )     6.13843947
  Sum of centres and spreads ( -0.000000, -0.000000, -0.000000 )     6.13843947

    973    -0.542E-13     0.0000046054        6.1384394716      36.18  <-- CONV
        O_D=      0.0000000 O_OD=      0.0000000 O_TOT=      6.1384395 <-- SPRD
 Delta: O_D= -0.5425535E-13 O_OD=  0.0000000E+00 O_TOT= -0.5417888E-13 <-- DLTA
 ------------------------------------------------------------------------------
 Cycle:    974
  WF centre and spread    1  ( -0.000000, -0.000000, -0.000000 )     6.13843947
  Sum of centres and spreads ( -0.000000, -0.000000, -0.000000 )     6.13843947

    974    -0.108E-12     0.0000046050        6.1384394716      36.18  <-- CONV
        O_D=      0.0000000 O_OD=      0.0000000 O_TOT=      6.1384395 <-- SPRD
 Delta: O_D= -0.1084823E-12 O_OD=  0.0000000E+00 O_TOT= -0.1083578E-12 <-- DLTA
 ------------------------------------------------------------------------------
 Cycle:    975
  WF centre and spread    1  ( -0.000000, -0.000000, -0.000000 )     6.13843947
  Sum of centres and spreads ( -0.000000, -0.000000, -0.000000 )     6.13843947

    975    -0.163E-12     0.0000046042        6.1384394716      36.18  <-- CONV
        O_D=      0.0000000 O_OD=      0.0000000 O_TOT=      6.1384395 <-- SPRD
 Delta: O_D= -0.1626432E-12 O_OD=  0.0000000E+00 O_TOT= -0.1625367E-12 <-- DLTA
 ------------------------------------------------------------------------------
 Cycle:    976
  WF centre and spread    1  ( -0.000000, -0.000000, -0.000000 )     6.13843947
  Sum of centres and spreads ( -0.000000, -0.000000, -0.000000 )     6.13843947

    976    -0.217E-12     0.0000046030        6.1384394716      36.18  <-- CONV
        O_D=      0.0000000 O_OD=      0.0000000 O_TOT=      6.1384395 <-- SPRD
 Delta: O_D= -0.2167001E-12 O_OD=  0.0000000E+00 O_TOT= -0.2167155E-12 <-- DLTA
 ------------------------------------------------------------------------------
 Cycle:    977
  WF centre and spread    1  ( -0.000000, -0.000000, -0.000000 )     6.13843947
  Sum of centres and spreads ( -0.000000, -0.000000, -0.000000 )     6.13843947

    977    -0.271E-12     0.0000046014        6.1384394716      36.19  <-- CONV
        O_D=      0.0000000 O_OD=      0.0000000 O_TOT=      6.1384395 <-- SPRD
 Delta: O_D= -0.2706157E-12 O_OD=  0.0000000E+00 O_TOT= -0.2708944E-12 <-- DLTA
 ------------------------------------------------------------------------------
 Cycle:    978
  WF centre and spread    1  ( -0.000000, -0.000000, -0.000000 )     6.13843947
  Sum of centres and spreads ( -0.000000, -0.000000, -0.000000 )     6.13843947

    978    -0.324E-12     0.0000045994        6.1384394716      36.19  <-- CONV
        O_D=      0.0000000 O_OD=      0.0000000 O_TOT=      6.1384395 <-- SPRD
 Delta: O_D= -0.3243526E-12 O_OD=  0.0000000E+00 O_TOT= -0.3241851E-12 <-- DLTA
 ------------------------------------------------------------------------------
 Cycle:    979
  WF centre and spread    1  ( -0.000000, -0.000000, -0.000000 )     6.13843947
  Sum of centres and spreads ( -0.000000, -0.000000, -0.000000 )     6.13843947

    979    -0.542E-13     0.0000045970        6.1384394716      36.19  <-- CONV
        O_D=      0.0000000 O_OD=      0.0000000 O_TOT=      6.1384395 <-- SPRD
 Delta: O_D= -0.5405721E-13 O_OD=  0.0000000E+00 O_TOT= -0.5417888E-13 <-- DLTA
 ------------------------------------------------------------------------------
 Cycle:    980
  WF centre and spread    1  ( -0.000000, -0.000000, -0.000000 )     6.13843947
  Sum of centres and spreads ( -0.000000, -0.000000, -0.000000 )     6.13843947

    980    -0.107E-12     0.0000045966        6.1384394716      36.19  <-- CONV
        O_D=      0.0000000 O_OD=      0.0000000 O_TOT=      6.1384395 <-- SPRD
 Delta: O_D= -0.1080862E-12 O_OD=  0.0000000E+00 O_TOT= -0.1074696E-12 <-- DLTA
 ------------------------------------------------------------------------------
 Cycle:    981
  WF centre and spread    1  ( -0.000000, -0.000000, -0.000000 )     6.13843947
  Sum of centres and spreads ( -0.000000, -0.000000, -0.000000 )     6.13843947

    981    -0.163E-12     0.0000045958        6.1384394716      36.19  <-- CONV
        O_D=      0.0000000 O_OD=      0.0000000 O_TOT=      6.1384395 <-- SPRD
 Delta: O_D= -0.1620492E-12 O_OD=  0.0000000E+00 O_TOT= -0.1625367E-12 <-- DLTA
 ------------------------------------------------------------------------------
 Cycle:    982
  WF centre and spread    1  ( -0.000000, -0.000000, -0.000000 )     6.13843947
  Sum of centres and spreads ( -0.000000, -0.000000, -0.000000 )     6.13843947

    982    -0.216E-12     0.0000045946        6.1384394716      36.19  <-- CONV
        O_D=      0.0000000 O_OD=      0.0000000 O_TOT=      6.1384395 <-- SPRD
 Delta: O_D= -0.2159089E-12 O_OD=  0.0000000E+00 O_TOT= -0.2158274E-12 <-- DLTA
 ------------------------------------------------------------------------------
 Cycle:    983
  WF centre and spread    1  ( -0.000000, -0.000000, -0.000000 )     6.13843947
  Sum of centres and spreads ( -0.000000, -0.000000, -0.000000 )     6.13843947

    983    -0.269E-12     0.0000045930        6.1384394716      36.19  <-- CONV
        O_D=      0.0000000 O_OD=      0.0000000 O_TOT=      6.1384395 <-- SPRD
 Delta: O_D= -0.2696277E-12 O_OD=  0.0000000E+00 O_TOT= -0.2691181E-12 <-- DLTA
 ------------------------------------------------------------------------------
 Cycle:    984
  WF centre and spread    1  ( -0.000000, -0.000000, -0.000000 )     6.13843947
  Sum of centres and spreads ( -0.000000, -0.000000, -0.000000 )     6.13843947

    984    -0.323E-12     0.0000045910        6.1384394716      36.20  <-- CONV
        O_D=      0.0000000 O_OD=      0.0000000 O_TOT=      6.1384395 <-- SPRD
 Delta: O_D= -0.3231685E-12 O_OD=  0.0000000E+00 O_TOT= -0.3232969E-12 <-- DLTA
 ------------------------------------------------------------------------------
 Cycle:    985
  WF centre and spread    1  ( -0.000000, -0.000000, -0.000000 )     6.13843947
  Sum of centres and spreads ( -0.000000, -0.000000, -0.000000 )     6.13843947

    985    -0.542E-13     0.0000045886        6.1384394716      36.20  <-- CONV
        O_D=      0.0000000 O_OD=      0.0000000 O_TOT=      6.1384395 <-- SPRD
 Delta: O_D= -0.5385987E-13 O_OD=  0.0000000E+00 O_TOT= -0.5417888E-13 <-- DLTA
 ------------------------------------------------------------------------------
 Cycle:    986
  WF centre and spread    1  ( -0.000000, -0.000000, -0.000000 )     6.13843947
  Sum of centres and spreads ( -0.000000, -0.000000, -0.000000 )     6.13843947

    986    -0.107E-12     0.0000045882        6.1384394716      36.20  <-- CONV
        O_D=      0.0000000 O_OD=      0.0000000 O_TOT=      6.1384395 <-- SPRD
 Delta: O_D= -0.1076916E-12 O_OD=  0.0000000E+00 O_TOT= -0.1074696E-12 <-- DLTA
 ------------------------------------------------------------------------------
 Cycle:    987
  WF centre and spread    1  ( -0.000000, -0.000000, -0.000000 )     6.13843947
  Sum of centres and spreads ( -0.000000, -0.000000, -0.000000 )     6.13843947

    987    -0.162E-12     0.0000045874        6.1384394716      36.20  <-- CONV
        O_D=      0.0000000 O_OD=      0.0000000 O_TOT=      6.1384395 <-- SPRD
 Delta: O_D= -0.1614577E-12 O_OD=  0.0000000E+00 O_TOT= -0.1616485E-12 <-- DLTA
 ------------------------------------------------------------------------------
 Cycle:    988
  WF centre and spread    1  ( -0.000000, -0.000000, -0.000000 )     6.13843947
  Sum of centres and spreads ( -0.000000, -0.000000, -0.000000 )     6.13843947

    988    -0.215E-12     0.0000045862        6.1384394716      36.20  <-- CONV
        O_D=      0.0000000 O_OD=      0.0000000 O_TOT=      6.1384395 <-- SPRD
 Delta: O_D= -0.2151208E-12 O_OD=  0.0000000E+00 O_TOT= -0.2149392E-12 <-- DLTA
 ------------------------------------------------------------------------------
 Cycle:    989
  WF centre and spread    1  ( -0.000000, -0.000000, -0.000000 )     6.13843947
  Sum of centres and spreads ( -0.000000, -0.000000, -0.000000 )     6.13843947

    989    -0.269E-12     0.0000045846        6.1384394716      36.20  <-- CONV
        O_D=      0.0000000 O_OD=      0.0000000 O_TOT=      6.1384395 <-- SPRD
 Delta: O_D= -0.2686437E-12 O_OD=  0.0000000E+00 O_TOT= -0.2691181E-12 <-- DLTA
 ------------------------------------------------------------------------------
 Cycle:    990
  WF centre and spread    1  ( -0.000000, -0.000000, -0.000000 )     6.13843947
  Sum of centres and spreads ( -0.000000, -0.000000, -0.000000 )     6.13843947

    990    -0.322E-12     0.0000045826        6.1384394716      36.21  <-- CONV
        O_D=      0.0000000 O_OD=      0.0000000 O_TOT=      6.1384395 <-- SPRD
 Delta: O_D= -0.3219893E-12 O_OD=  0.0000000E+00 O_TOT= -0.3215206E-12 <-- DLTA
 ------------------------------------------------------------------------------
 Cycle:    991
  WF centre and spread    1  ( -0.000000, -0.000000, -0.000000 )     6.13843947
  Sum of centres and spreads ( -0.000000, -0.000000, -0.000000 )     6.13843947

    991    -0.542E-13     0.0000045802        6.1384394716      36.21  <-- CONV
        O_D=      0.0000000 O_OD=      0.0000000 O_TOT=      6.1384395 <-- SPRD
 Delta: O_D= -0.5366334E-13 O_OD=  0.0000000E+00 O_TOT= -0.5417888E-13 <-- DLTA
 ------------------------------------------------------------------------------
 Cycle:    992
  WF centre and spread    1  ( -0.000000, -0.000000, -0.000000 )     6.13843947
  Sum of centres and spreads ( -0.000000, -0.000000, -0.000000 )     6.13843947

    992    -0.107E-12     0.0000045798        6.1384394716      36.21  <-- CONV
        O_D=      0.0000000 O_OD=      0.0000000 O_TOT=      6.1384395 <-- SPRD
 Delta: O_D= -0.1072987E-12 O_OD=  0.0000000E+00 O_TOT= -0.1065814E-12 <-- DLTA
 ------------------------------------------------------------------------------
 Cycle:    993
  WF centre and spread    1  ( -0.000000, -0.000000, -0.000000 )     6.13843947
  Sum of centres and spreads ( -0.000000, -0.000000, -0.000000 )     6.13843947

    993    -0.162E-12     0.0000045790        6.1384394716      36.21  <-- CONV
        O_D=      0.0000000 O_OD=      0.0000000 O_TOT=      6.1384395 <-- SPRD
 Delta: O_D= -0.1608686E-12 O_OD=  0.0000000E+00 O_TOT= -0.1616485E-12 <-- DLTA
 ------------------------------------------------------------------------------
 Cycle:    994
  WF centre and spread    1  ( -0.000000, -0.000000, -0.000000 )     6.13843947
  Sum of centres and spreads ( -0.000000, -0.000000, -0.000000 )     6.13843947

    994    -0.214E-12     0.0000045778        6.1384394716      36.21  <-- CONV
        O_D=      0.0000000 O_OD=      0.0000000 O_TOT=      6.1384395 <-- SPRD
 Delta: O_D= -0.2143360E-12 O_OD=  0.0000000E+00 O_TOT= -0.2140510E-12 <-- DLTA
 ------------------------------------------------------------------------------
 Cycle:    995
  WF centre and spread    1  ( -0.000000, -0.000000, -0.000000 )     6.13843947
  Sum of centres and spreads ( -0.000000, -0.000000, -0.000000 )     6.13843947

    995    -0.267E-12     0.0000045762        6.1384394716      36.21  <-- CONV
        O_D=      0.0000000 O_OD=      0.0000000 O_TOT=      6.1384395 <-- SPRD
 Delta: O_D= -0.2676637E-12 O_OD=  0.0000000E+00 O_TOT= -0.2673417E-12 <-- DLTA
 ------------------------------------------------------------------------------
 Cycle:    996
  WF centre and spread    1  ( -0.000000, -0.000000, -0.000000 )     6.13843947
  Sum of centres and spreads ( -0.000000, -0.000000, -0.000000 )     6.13843947

    996    -0.321E-12     0.0000045742        6.1384394716      36.22  <-- CONV
        O_D=      0.0000000 O_OD=      0.0000000 O_TOT=      6.1384395 <-- SPRD
 Delta: O_D= -0.3208148E-12 O_OD=  0.0000000E+00 O_TOT= -0.3206324E-12 <-- DLTA
 ------------------------------------------------------------------------------
 Cycle:    997
  WF centre and spread    1  ( -0.000000, -0.000000, -0.000000 )     6.13843947
  Sum of centres and spreads ( -0.000000, -0.000000, -0.000000 )     6.13843947

    997    -0.542E-13     0.0000045718        6.1384394716      36.22  <-- CONV
        O_D=      0.0000000 O_OD=      0.0000000 O_TOT=      6.1384395 <-- SPRD
 Delta: O_D= -0.5346760E-13 O_OD=  0.0000000E+00 O_TOT= -0.5417888E-13 <-- DLTA
 ------------------------------------------------------------------------------
 Cycle:    998
  WF centre and spread    1  ( -0.000000, -0.000000, -0.000000 )     6.13843947
  Sum of centres and spreads ( -0.000000, -0.000000, -0.000000 )     6.13843947

    998    -0.107E-12     0.0000045714        6.1384394716      36.22  <-- CONV
        O_D=      0.0000000 O_OD=      0.0000000 O_TOT=      6.1384395 <-- SPRD
 Delta: O_D= -0.1069073E-12 O_OD=  0.0000000E+00 O_TOT= -0.1065814E-12 <-- DLTA
 ------------------------------------------------------------------------------
 Cycle:    999
  WF centre and spread    1  ( -0.000000, -0.000000, -0.000000 )     6.13843947
  Sum of centres and spreads ( -0.000000, -0.000000, -0.000000 )     6.13843947

    999    -0.160E-12     0.0000045706        6.1384394716      36.22  <-- CONV
        O_D=      0.0000000 O_OD=      0.0000000 O_TOT=      6.1384395 <-- SPRD
 Delta: O_D= -0.1602819E-12 O_OD=  0.0000000E+00 O_TOT= -0.1598721E-12 <-- DLTA
 ------------------------------------------------------------------------------
 Cycle:   1000
  WF centre and spread    1  ( -0.000000, -0.000000, -0.000000 )     6.13843947
  Sum of centres and spreads ( -0.000000, -0.000000, -0.000000 )     6.13843947

   1000    -0.214E-12     0.0000045695        6.1384394716      36.22  <-- CONV
        O_D=      0.0000000 O_OD=      0.0000000 O_TOT=      6.1384395 <-- SPRD
 Delta: O_D= -0.2135543E-12 O_OD=  0.0000000E+00 O_TOT= -0.2140510E-12 <-- DLTA
 ------------------------------------------------------------------------------

 Writing checkpoint file wannier90.chk... done

 Final State
  WF centre and spread    1  ( -0.000000, -0.000000, -0.000000 )     6.13843947
  Sum of centres and spreads ( -0.000000, -0.000000, -0.000000 )     6.13843947

         Spreads (Ang^2)       Omega I      =     6.138439469
        ================       Omega D      =     0.000000002
                               Omega OD     =     0.000000000
    Final Spread (Ang^2)       Omega Total  =     6.138439472
 ------------------------------------------------------------------------------

 On-site Hamiltonian matrix elements
     n        <0n|H|0n> (eV)
   -------------------------
     1         7.092479

 Time for wannierise            2.368 (sec)

 Writing checkpoint file wannier90.chk... done

 *---------------------------------------------------------------------------*
 |                               PLOTTING                                    |
 *---------------------------------------------------------------------------*


 Calculating interpolated band-structure

 Time to calculate interpolated band structure       0.046 (sec)

 Time for plotting              0.159 (sec)
 Total Execution Time          51.241 (sec)

 *===========================================================================*
 |                             TIMING INFORMATION                            |
 *===========================================================================*
 |    Tag                                                Ncalls      Time (s)|
 |---------------------------------------------------------------------------|
 |kmesh: get                                        :         1         0.956|
 |overlap: allocate                                 :         1         0.000|
 |overlap: read                                     :         1        12.724|
 |dis: main                                         :         1        34.740|
 |wann: main                                        :         1         2.368|
 |plot: main                                        :         1         0.159|
 *---------------------------------------------------------------------------*

 All done: wannier90 exiting
