File written on 24Apr2023 at 09:38:47 

calc_only_A  :  F

begin real_lattice
   1.7620701  -7.9961066   0.0000000
   1.7620701   7.9961066   0.0000000
   0.0000000   0.0000000   3.9394045
end real_lattice

begin recip_lattice
   1.7828988  -0.3928903   0.0000000
   1.7828988   0.3928903  -0.0000000
  -0.0000000   0.0000000   1.5949581
end recip_lattice

begin kpoints
   686
    0.00000000    0.00000000    0.00000000
    0.00000000    0.00000000    0.07142857
    0.00000000    0.00000000    0.14285714
    0.00000000    0.00000000    0.21428571
    0.00000000    0.00000000    0.28571429
    0.00000000    0.00000000    0.35714286
    0.00000000    0.00000000    0.42857143
    0.00000000    0.00000000    0.50000000
    0.00000000    0.00000000    0.57142857
    0.00000000    0.00000000    0.64285714
    0.00000000    0.00000000    0.71428571
    0.00000000    0.00000000    0.78571429
    0.00000000    0.00000000    0.85714286
    0.00000000    0.00000000    0.92857143
    0.00000000    0.14285714    0.00000000
    0.00000000    0.14285714    0.07142857
    0.00000000    0.14285714    0.14285714
    0.00000000    0.14285714    0.21428571
    0.00000000    0.14285714    0.28571429
    0.00000000    0.14285714    0.35714286
    0.00000000    0.14285714    0.42857143
    0.00000000    0.14285714    0.50000000
    0.00000000    0.14285714    0.57142857
    0.00000000    0.14285714    0.64285714
    0.00000000    0.14285714    0.71428571
    0.00000000    0.14285714    0.78571429
    0.00000000    0.14285714    0.85714286
    0.00000000    0.14285714    0.92857143
    0.00000000    0.28571429    0.00000000
    0.00000000    0.28571429    0.07142857
    0.00000000    0.28571429    0.14285714
    0.00000000    0.28571429    0.21428571
    0.00000000    0.28571429    0.28571429
    0.00000000    0.28571429    0.35714286
    0.00000000    0.28571429    0.42857143
    0.00000000    0.28571429    0.50000000
    0.00000000    0.28571429    0.57142857
    0.00000000    0.28571429    0.64285714
    0.00000000    0.28571429    0.71428571
    0.00000000    0.28571429    0.78571429
    0.00000000    0.28571429    0.85714286
    0.00000000    0.28571429    0.92857143
    0.00000000    0.42857143    0.00000000
    0.00000000    0.42857143    0.07142857
    0.00000000    0.42857143    0.14285714
    0.00000000    0.42857143    0.21428571
    0.00000000    0.42857143    0.28571429
    0.00000000    0.42857143    0.35714286
    0.00000000    0.42857143    0.42857143
    0.00000000    0.42857143    0.50000000
    0.00000000    0.42857143    0.57142857
    0.00000000    0.42857143    0.64285714
    0.00000000    0.42857143    0.71428571
    0.00000000    0.42857143    0.78571429
    0.00000000    0.42857143    0.85714286
    0.00000000    0.42857143    0.92857143
    0.00000000    0.57142857    0.00000000
    0.00000000    0.57142857    0.07142857
    0.00000000    0.57142857    0.14285714
    0.00000000    0.57142857    0.21428571
    0.00000000    0.57142857    0.28571429
    0.00000000    0.57142857    0.35714286
    0.00000000    0.57142857    0.42857143
    0.00000000    0.57142857    0.50000000
    0.00000000    0.57142857    0.57142857
    0.00000000    0.57142857    0.64285714
    0.00000000    0.57142857    0.71428571
    0.00000000    0.57142857    0.78571429
    0.00000000    0.57142857    0.85714286
    0.00000000    0.57142857    0.92857143
    0.00000000    0.71428571    0.00000000
    0.00000000    0.71428571    0.07142857
    0.00000000    0.71428571    0.14285714
    0.00000000    0.71428571    0.21428571
    0.00000000    0.71428571    0.28571429
    0.00000000    0.71428571    0.35714286
    0.00000000    0.71428571    0.42857143
    0.00000000    0.71428571    0.50000000
    0.00000000    0.71428571    0.57142857
    0.00000000    0.71428571    0.64285714
    0.00000000    0.71428571    0.71428571
    0.00000000    0.71428571    0.78571429
    0.00000000    0.71428571    0.85714286
    0.00000000    0.71428571    0.92857143
    0.00000000    0.85714286    0.00000000
    0.00000000    0.85714286    0.07142857
    0.00000000    0.85714286    0.14285714
    0.00000000    0.85714286    0.21428571
    0.00000000    0.85714286    0.28571429
    0.00000000    0.85714286    0.35714286
    0.00000000    0.85714286    0.42857143
    0.00000000    0.85714286    0.50000000
    0.00000000    0.85714286    0.57142857
    0.00000000    0.85714286    0.64285714
    0.00000000    0.85714286    0.71428571
    0.00000000    0.85714286    0.78571429
    0.00000000    0.85714286    0.85714286
    0.00000000    0.85714286    0.92857143
    0.14285714    0.00000000    0.00000000
    0.14285714    0.00000000    0.07142857
    0.14285714    0.00000000    0.14285714
    0.14285714    0.00000000    0.21428571
    0.14285714    0.00000000    0.28571429
    0.14285714    0.00000000    0.35714286
    0.14285714    0.00000000    0.42857143
    0.14285714    0.00000000    0.50000000
    0.14285714    0.00000000    0.57142857
    0.14285714    0.00000000    0.64285714
    0.14285714    0.00000000    0.71428571
    0.14285714    0.00000000    0.78571429
    0.14285714    0.00000000    0.85714286
    0.14285714    0.00000000    0.92857143
    0.14285714    0.14285714    0.00000000
    0.14285714    0.14285714    0.07142857
    0.14285714    0.14285714    0.14285714
    0.14285714    0.14285714    0.21428571
    0.14285714    0.14285714    0.28571429
    0.14285714    0.14285714    0.35714286
    0.14285714    0.14285714    0.42857143
    0.14285714    0.14285714    0.50000000
    0.14285714    0.14285714    0.57142857
    0.14285714    0.14285714    0.64285714
    0.14285714    0.14285714    0.71428571
    0.14285714    0.14285714    0.78571429
    0.14285714    0.14285714    0.85714286
    0.14285714    0.14285714    0.92857143
    0.14285714    0.28571429    0.00000000
    0.14285714    0.28571429    0.07142857
    0.14285714    0.28571429    0.14285714
    0.14285714    0.28571429    0.21428571
    0.14285714    0.28571429    0.28571429
    0.14285714    0.28571429    0.35714286
    0.14285714    0.28571429    0.42857143
    0.14285714    0.28571429    0.50000000
    0.14285714    0.28571429    0.57142857
    0.14285714    0.28571429    0.64285714
    0.14285714    0.28571429    0.71428571
    0.14285714    0.28571429    0.78571429
    0.14285714    0.28571429    0.85714286
    0.14285714    0.28571429    0.92857143
    0.14285714    0.42857143    0.00000000
    0.14285714    0.42857143    0.07142857
    0.14285714    0.42857143    0.14285714
    0.14285714    0.42857143    0.21428571
    0.14285714    0.42857143    0.28571429
    0.14285714    0.42857143    0.35714286
    0.14285714    0.42857143    0.42857143
    0.14285714    0.42857143    0.50000000
    0.14285714    0.42857143    0.57142857
    0.14285714    0.42857143    0.64285714
    0.14285714    0.42857143    0.71428571
    0.14285714    0.42857143    0.78571429
    0.14285714    0.42857143    0.85714286
    0.14285714    0.42857143    0.92857143
    0.14285714    0.57142857    0.00000000
    0.14285714    0.57142857    0.07142857
    0.14285714    0.57142857    0.14285714
    0.14285714    0.57142857    0.21428571
    0.14285714    0.57142857    0.28571429
    0.14285714    0.57142857    0.35714286
    0.14285714    0.57142857    0.42857143
    0.14285714    0.57142857    0.50000000
    0.14285714    0.57142857    0.57142857
    0.14285714    0.57142857    0.64285714
    0.14285714    0.57142857    0.71428571
    0.14285714    0.57142857    0.78571429
    0.14285714    0.57142857    0.85714286
    0.14285714    0.57142857    0.92857143
    0.14285714    0.71428571    0.00000000
    0.14285714    0.71428571    0.07142857
    0.14285714    0.71428571    0.14285714
    0.14285714    0.71428571    0.21428571
    0.14285714    0.71428571    0.28571429
    0.14285714    0.71428571    0.35714286
    0.14285714    0.71428571    0.42857143
    0.14285714    0.71428571    0.50000000
    0.14285714    0.71428571    0.57142857
    0.14285714    0.71428571    0.64285714
    0.14285714    0.71428571    0.71428571
    0.14285714    0.71428571    0.78571429
    0.14285714    0.71428571    0.85714286
    0.14285714    0.71428571    0.92857143
    0.14285714    0.85714286    0.00000000
    0.14285714    0.85714286    0.07142857
    0.14285714    0.85714286    0.14285714
    0.14285714    0.85714286    0.21428571
    0.14285714    0.85714286    0.28571429
    0.14285714    0.85714286    0.35714286
    0.14285714    0.85714286    0.42857143
    0.14285714    0.85714286    0.50000000
    0.14285714    0.85714286    0.57142857
    0.14285714    0.85714286    0.64285714
    0.14285714    0.85714286    0.71428571
    0.14285714    0.85714286    0.78571429
    0.14285714    0.85714286    0.85714286
    0.14285714    0.85714286    0.92857143
    0.28571429    0.00000000    0.00000000
    0.28571429    0.00000000    0.07142857
    0.28571429    0.00000000    0.14285714
    0.28571429    0.00000000    0.21428571
    0.28571429    0.00000000    0.28571429
    0.28571429    0.00000000    0.35714286
    0.28571429    0.00000000    0.42857143
    0.28571429    0.00000000    0.50000000
    0.28571429    0.00000000    0.57142857
    0.28571429    0.00000000    0.64285714
    0.28571429    0.00000000    0.71428571
    0.28571429    0.00000000    0.78571429
    0.28571429    0.00000000    0.85714286
    0.28571429    0.00000000    0.92857143
    0.28571429    0.14285714    0.00000000
    0.28571429    0.14285714    0.07142857
    0.28571429    0.14285714    0.14285714
    0.28571429    0.14285714    0.21428571
    0.28571429    0.14285714    0.28571429
    0.28571429    0.14285714    0.35714286
    0.28571429    0.14285714    0.42857143
    0.28571429    0.14285714    0.50000000
    0.28571429    0.14285714    0.57142857
    0.28571429    0.14285714    0.64285714
    0.28571429    0.14285714    0.71428571
    0.28571429    0.14285714    0.78571429
    0.28571429    0.14285714    0.85714286
    0.28571429    0.14285714    0.92857143
    0.28571429    0.28571429    0.00000000
    0.28571429    0.28571429    0.07142857
    0.28571429    0.28571429    0.14285714
    0.28571429    0.28571429    0.21428571
    0.28571429    0.28571429    0.28571429
    0.28571429    0.28571429    0.35714286
    0.28571429    0.28571429    0.42857143
    0.28571429    0.28571429    0.50000000
    0.28571429    0.28571429    0.57142857
    0.28571429    0.28571429    0.64285714
    0.28571429    0.28571429    0.71428571
    0.28571429    0.28571429    0.78571429
    0.28571429    0.28571429    0.85714286
    0.28571429    0.28571429    0.92857143
    0.28571429    0.42857143    0.00000000
    0.28571429    0.42857143    0.07142857
    0.28571429    0.42857143    0.14285714
    0.28571429    0.42857143    0.21428571
    0.28571429    0.42857143    0.28571429
    0.28571429    0.42857143    0.35714286
    0.28571429    0.42857143    0.42857143
    0.28571429    0.42857143    0.50000000
    0.28571429    0.42857143    0.57142857
    0.28571429    0.42857143    0.64285714
    0.28571429    0.42857143    0.71428571
    0.28571429    0.42857143    0.78571429
    0.28571429    0.42857143    0.85714286
    0.28571429    0.42857143    0.92857143
    0.28571429    0.57142857    0.00000000
    0.28571429    0.57142857    0.07142857
    0.28571429    0.57142857    0.14285714
    0.28571429    0.57142857    0.21428571
    0.28571429    0.57142857    0.28571429
    0.28571429    0.57142857    0.35714286
    0.28571429    0.57142857    0.42857143
    0.28571429    0.57142857    0.50000000
    0.28571429    0.57142857    0.57142857
    0.28571429    0.57142857    0.64285714
    0.28571429    0.57142857    0.71428571
    0.28571429    0.57142857    0.78571429
    0.28571429    0.57142857    0.85714286
    0.28571429    0.57142857    0.92857143
    0.28571429    0.71428571    0.00000000
    0.28571429    0.71428571    0.07142857
    0.28571429    0.71428571    0.14285714
    0.28571429    0.71428571    0.21428571
    0.28571429    0.71428571    0.28571429
    0.28571429    0.71428571    0.35714286
    0.28571429    0.71428571    0.42857143
    0.28571429    0.71428571    0.50000000
    0.28571429    0.71428571    0.57142857
    0.28571429    0.71428571    0.64285714
    0.28571429    0.71428571    0.71428571
    0.28571429    0.71428571    0.78571429
    0.28571429    0.71428571    0.85714286
    0.28571429    0.71428571    0.92857143
    0.28571429    0.85714286    0.00000000
    0.28571429    0.85714286    0.07142857
    0.28571429    0.85714286    0.14285714
    0.28571429    0.85714286    0.21428571
    0.28571429    0.85714286    0.28571429
    0.28571429    0.85714286    0.35714286
    0.28571429    0.85714286    0.42857143
    0.28571429    0.85714286    0.50000000
    0.28571429    0.85714286    0.57142857
    0.28571429    0.85714286    0.64285714
    0.28571429    0.85714286    0.71428571
    0.28571429    0.85714286    0.78571429
    0.28571429    0.85714286    0.85714286
    0.28571429    0.85714286    0.92857143
    0.42857143    0.00000000    0.00000000
    0.42857143    0.00000000    0.07142857
    0.42857143    0.00000000    0.14285714
    0.42857143    0.00000000    0.21428571
    0.42857143    0.00000000    0.28571429
    0.42857143    0.00000000    0.35714286
    0.42857143    0.00000000    0.42857143
    0.42857143    0.00000000    0.50000000
    0.42857143    0.00000000    0.57142857
    0.42857143    0.00000000    0.64285714
    0.42857143    0.00000000    0.71428571
    0.42857143    0.00000000    0.78571429
    0.42857143    0.00000000    0.85714286
    0.42857143    0.00000000    0.92857143
    0.42857143    0.14285714    0.00000000
    0.42857143    0.14285714    0.07142857
    0.42857143    0.14285714    0.14285714
    0.42857143    0.14285714    0.21428571
    0.42857143    0.14285714    0.28571429
    0.42857143    0.14285714    0.35714286
    0.42857143    0.14285714    0.42857143
    0.42857143    0.14285714    0.50000000
    0.42857143    0.14285714    0.57142857
    0.42857143    0.14285714    0.64285714
    0.42857143    0.14285714    0.71428571
    0.42857143    0.14285714    0.78571429
    0.42857143    0.14285714    0.85714286
    0.42857143    0.14285714    0.92857143
    0.42857143    0.28571429    0.00000000
    0.42857143    0.28571429    0.07142857
    0.42857143    0.28571429    0.14285714
    0.42857143    0.28571429    0.21428571
    0.42857143    0.28571429    0.28571429
    0.42857143    0.28571429    0.35714286
    0.42857143    0.28571429    0.42857143
    0.42857143    0.28571429    0.50000000
    0.42857143    0.28571429    0.57142857
    0.42857143    0.28571429    0.64285714
    0.42857143    0.28571429    0.71428571
    0.42857143    0.28571429    0.78571429
    0.42857143    0.28571429    0.85714286
    0.42857143    0.28571429    0.92857143
    0.42857143    0.42857143    0.00000000
    0.42857143    0.42857143    0.07142857
    0.42857143    0.42857143    0.14285714
    0.42857143    0.42857143    0.21428571
    0.42857143    0.42857143    0.28571429
    0.42857143    0.42857143    0.35714286
    0.42857143    0.42857143    0.42857143
    0.42857143    0.42857143    0.50000000
    0.42857143    0.42857143    0.57142857
    0.42857143    0.42857143    0.64285714
    0.42857143    0.42857143    0.71428571
    0.42857143    0.42857143    0.78571429
    0.42857143    0.42857143    0.85714286
    0.42857143    0.42857143    0.92857143
    0.42857143    0.57142857    0.00000000
    0.42857143    0.57142857    0.07142857
    0.42857143    0.57142857    0.14285714
    0.42857143    0.57142857    0.21428571
    0.42857143    0.57142857    0.28571429
    0.42857143    0.57142857    0.35714286
    0.42857143    0.57142857    0.42857143
    0.42857143    0.57142857    0.50000000
    0.42857143    0.57142857    0.57142857
    0.42857143    0.57142857    0.64285714
    0.42857143    0.57142857    0.71428571
    0.42857143    0.57142857    0.78571429
    0.42857143    0.57142857    0.85714286
    0.42857143    0.57142857    0.92857143
    0.42857143    0.71428571    0.00000000
    0.42857143    0.71428571    0.07142857
    0.42857143    0.71428571    0.14285714
    0.42857143    0.71428571    0.21428571
    0.42857143    0.71428571    0.28571429
    0.42857143    0.71428571    0.35714286
    0.42857143    0.71428571    0.42857143
    0.42857143    0.71428571    0.50000000
    0.42857143    0.71428571    0.57142857
    0.42857143    0.71428571    0.64285714
    0.42857143    0.71428571    0.71428571
    0.42857143    0.71428571    0.78571429
    0.42857143    0.71428571    0.85714286
    0.42857143    0.71428571    0.92857143
    0.42857143    0.85714286    0.00000000
    0.42857143    0.85714286    0.07142857
    0.42857143    0.85714286    0.14285714
    0.42857143    0.85714286    0.21428571
    0.42857143    0.85714286    0.28571429
    0.42857143    0.85714286    0.35714286
    0.42857143    0.85714286    0.42857143
    0.42857143    0.85714286    0.50000000
    0.42857143    0.85714286    0.57142857
    0.42857143    0.85714286    0.64285714
    0.42857143    0.85714286    0.71428571
    0.42857143    0.85714286    0.78571429
    0.42857143    0.85714286    0.85714286
    0.42857143    0.85714286    0.92857143
    0.57142857    0.00000000    0.00000000
    0.57142857    0.00000000    0.07142857
    0.57142857    0.00000000    0.14285714
    0.57142857    0.00000000    0.21428571
    0.57142857    0.00000000    0.28571429
    0.57142857    0.00000000    0.35714286
    0.57142857    0.00000000    0.42857143
    0.57142857    0.00000000    0.50000000
    0.57142857    0.00000000    0.57142857
    0.57142857    0.00000000    0.64285714
    0.57142857    0.00000000    0.71428571
    0.57142857    0.00000000    0.78571429
    0.57142857    0.00000000    0.85714286
    0.57142857    0.00000000    0.92857143
    0.57142857    0.14285714    0.00000000
    0.57142857    0.14285714    0.07142857
    0.57142857    0.14285714    0.14285714
    0.57142857    0.14285714    0.21428571
    0.57142857    0.14285714    0.28571429
    0.57142857    0.14285714    0.35714286
    0.57142857    0.14285714    0.42857143
    0.57142857    0.14285714    0.50000000
    0.57142857    0.14285714    0.57142857
    0.57142857    0.14285714    0.64285714
    0.57142857    0.14285714    0.71428571
    0.57142857    0.14285714    0.78571429
    0.57142857    0.14285714    0.85714286
    0.57142857    0.14285714    0.92857143
    0.57142857    0.28571429    0.00000000
    0.57142857    0.28571429    0.07142857
    0.57142857    0.28571429    0.14285714
    0.57142857    0.28571429    0.21428571
    0.57142857    0.28571429    0.28571429
    0.57142857    0.28571429    0.35714286
    0.57142857    0.28571429    0.42857143
    0.57142857    0.28571429    0.50000000
    0.57142857    0.28571429    0.57142857
    0.57142857    0.28571429    0.64285714
    0.57142857    0.28571429    0.71428571
    0.57142857    0.28571429    0.78571429
    0.57142857    0.28571429    0.85714286
    0.57142857    0.28571429    0.92857143
    0.57142857    0.42857143    0.00000000
    0.57142857    0.42857143    0.07142857
    0.57142857    0.42857143    0.14285714
    0.57142857    0.42857143    0.21428571
    0.57142857    0.42857143    0.28571429
    0.57142857    0.42857143    0.35714286
    0.57142857    0.42857143    0.42857143
    0.57142857    0.42857143    0.50000000
    0.57142857    0.42857143    0.57142857
    0.57142857    0.42857143    0.64285714
    0.57142857    0.42857143    0.71428571
    0.57142857    0.42857143    0.78571429
    0.57142857    0.42857143    0.85714286
    0.57142857    0.42857143    0.92857143
    0.57142857    0.57142857    0.00000000
    0.57142857    0.57142857    0.07142857
    0.57142857    0.57142857    0.14285714
    0.57142857    0.57142857    0.21428571
    0.57142857    0.57142857    0.28571429
    0.57142857    0.57142857    0.35714286
    0.57142857    0.57142857    0.42857143
    0.57142857    0.57142857    0.50000000
    0.57142857    0.57142857    0.57142857
    0.57142857    0.57142857    0.64285714
    0.57142857    0.57142857    0.71428571
    0.57142857    0.57142857    0.78571429
    0.57142857    0.57142857    0.85714286
    0.57142857    0.57142857    0.92857143
    0.57142857    0.71428571    0.00000000
    0.57142857    0.71428571    0.07142857
    0.57142857    0.71428571    0.14285714
    0.57142857    0.71428571    0.21428571
    0.57142857    0.71428571    0.28571429
    0.57142857    0.71428571    0.35714286
    0.57142857    0.71428571    0.42857143
    0.57142857    0.71428571    0.50000000
    0.57142857    0.71428571    0.57142857
    0.57142857    0.71428571    0.64285714
    0.57142857    0.71428571    0.71428571
    0.57142857    0.71428571    0.78571429
    0.57142857    0.71428571    0.85714286
    0.57142857    0.71428571    0.92857143
    0.57142857    0.85714286    0.00000000
    0.57142857    0.85714286    0.07142857
    0.57142857    0.85714286    0.14285714
    0.57142857    0.85714286    0.21428571
    0.57142857    0.85714286    0.28571429
    0.57142857    0.85714286    0.35714286
    0.57142857    0.85714286    0.42857143
    0.57142857    0.85714286    0.50000000
    0.57142857    0.85714286    0.57142857
    0.57142857    0.85714286    0.64285714
    0.57142857    0.85714286    0.71428571
    0.57142857    0.85714286    0.78571429
    0.57142857    0.85714286    0.85714286
    0.57142857    0.85714286    0.92857143
    0.71428571    0.00000000    0.00000000
    0.71428571    0.00000000    0.07142857
    0.71428571    0.00000000    0.14285714
    0.71428571    0.00000000    0.21428571
    0.71428571    0.00000000    0.28571429
    0.71428571    0.00000000    0.35714286
    0.71428571    0.00000000    0.42857143
    0.71428571    0.00000000    0.50000000
    0.71428571    0.00000000    0.57142857
    0.71428571    0.00000000    0.64285714
    0.71428571    0.00000000    0.71428571
    0.71428571    0.00000000    0.78571429
    0.71428571    0.00000000    0.85714286
    0.71428571    0.00000000    0.92857143
    0.71428571    0.14285714    0.00000000
    0.71428571    0.14285714    0.07142857
    0.71428571    0.14285714    0.14285714
    0.71428571    0.14285714    0.21428571
    0.71428571    0.14285714    0.28571429
    0.71428571    0.14285714    0.35714286
    0.71428571    0.14285714    0.42857143
    0.71428571    0.14285714    0.50000000
    0.71428571    0.14285714    0.57142857
    0.71428571    0.14285714    0.64285714
    0.71428571    0.14285714    0.71428571
    0.71428571    0.14285714    0.78571429
    0.71428571    0.14285714    0.85714286
    0.71428571    0.14285714    0.92857143
    0.71428571    0.28571429    0.00000000
    0.71428571    0.28571429    0.07142857
    0.71428571    0.28571429    0.14285714
    0.71428571    0.28571429    0.21428571
    0.71428571    0.28571429    0.28571429
    0.71428571    0.28571429    0.35714286
    0.71428571    0.28571429    0.42857143
    0.71428571    0.28571429    0.50000000
    0.71428571    0.28571429    0.57142857
    0.71428571    0.28571429    0.64285714
    0.71428571    0.28571429    0.71428571
    0.71428571    0.28571429    0.78571429
    0.71428571    0.28571429    0.85714286
    0.71428571    0.28571429    0.92857143
    0.71428571    0.42857143    0.00000000
    0.71428571    0.42857143    0.07142857
    0.71428571    0.42857143    0.14285714
    0.71428571    0.42857143    0.21428571
    0.71428571    0.42857143    0.28571429
    0.71428571    0.42857143    0.35714286
    0.71428571    0.42857143    0.42857143
    0.71428571    0.42857143    0.50000000
    0.71428571    0.42857143    0.57142857
    0.71428571    0.42857143    0.64285714
    0.71428571    0.42857143    0.71428571
    0.71428571    0.42857143    0.78571429
    0.71428571    0.42857143    0.85714286
    0.71428571    0.42857143    0.92857143
    0.71428571    0.57142857    0.00000000
    0.71428571    0.57142857    0.07142857
    0.71428571    0.57142857    0.14285714
    0.71428571    0.57142857    0.21428571
    0.71428571    0.57142857    0.28571429
    0.71428571    0.57142857    0.35714286
    0.71428571    0.57142857    0.42857143
    0.71428571    0.57142857    0.50000000
    0.71428571    0.57142857    0.57142857
    0.71428571    0.57142857    0.64285714
    0.71428571    0.57142857    0.71428571
    0.71428571    0.57142857    0.78571429
    0.71428571    0.57142857    0.85714286
    0.71428571    0.57142857    0.92857143
    0.71428571    0.71428571    0.00000000
    0.71428571    0.71428571    0.07142857
    0.71428571    0.71428571    0.14285714
    0.71428571    0.71428571    0.21428571
    0.71428571    0.71428571    0.28571429
    0.71428571    0.71428571    0.35714286
    0.71428571    0.71428571    0.42857143
    0.71428571    0.71428571    0.50000000
    0.71428571    0.71428571    0.57142857
    0.71428571    0.71428571    0.64285714
    0.71428571    0.71428571    0.71428571
    0.71428571    0.71428571    0.78571429
    0.71428571    0.71428571    0.85714286
    0.71428571    0.71428571    0.92857143
    0.71428571    0.85714286    0.00000000
    0.71428571    0.85714286    0.07142857
    0.71428571    0.85714286    0.14285714
    0.71428571    0.85714286    0.21428571
    0.71428571    0.85714286    0.28571429
    0.71428571    0.85714286    0.35714286
    0.71428571    0.85714286    0.42857143
    0.71428571    0.85714286    0.50000000
    0.71428571    0.85714286    0.57142857
    0.71428571    0.85714286    0.64285714
    0.71428571    0.85714286    0.71428571
    0.71428571    0.85714286    0.78571429
    0.71428571    0.85714286    0.85714286
    0.71428571    0.85714286    0.92857143
    0.85714286    0.00000000    0.00000000
    0.85714286    0.00000000    0.07142857
    0.85714286    0.00000000    0.14285714
    0.85714286    0.00000000    0.21428571
    0.85714286    0.00000000    0.28571429
    0.85714286    0.00000000    0.35714286
    0.85714286    0.00000000    0.42857143
    0.85714286    0.00000000    0.50000000
    0.85714286    0.00000000    0.57142857
    0.85714286    0.00000000    0.64285714
    0.85714286    0.00000000    0.71428571
    0.85714286    0.00000000    0.78571429
    0.85714286    0.00000000    0.85714286
    0.85714286    0.00000000    0.92857143
    0.85714286    0.14285714    0.00000000
    0.85714286    0.14285714    0.07142857
    0.85714286    0.14285714    0.14285714
    0.85714286    0.14285714    0.21428571
    0.85714286    0.14285714    0.28571429
    0.85714286    0.14285714    0.35714286
    0.85714286    0.14285714    0.42857143
    0.85714286    0.14285714    0.50000000
    0.85714286    0.14285714    0.57142857
    0.85714286    0.14285714    0.64285714
    0.85714286    0.14285714    0.71428571
    0.85714286    0.14285714    0.78571429
    0.85714286    0.14285714    0.85714286
    0.85714286    0.14285714    0.92857143
    0.85714286    0.28571429    0.00000000
    0.85714286    0.28571429    0.07142857
    0.85714286    0.28571429    0.14285714
    0.85714286    0.28571429    0.21428571
    0.85714286    0.28571429    0.28571429
    0.85714286    0.28571429    0.35714286
    0.85714286    0.28571429    0.42857143
    0.85714286    0.28571429    0.50000000
    0.85714286    0.28571429    0.57142857
    0.85714286    0.28571429    0.64285714
    0.85714286    0.28571429    0.71428571
    0.85714286    0.28571429    0.78571429
    0.85714286    0.28571429    0.85714286
    0.85714286    0.28571429    0.92857143
    0.85714286    0.42857143    0.00000000
    0.85714286    0.42857143    0.07142857
    0.85714286    0.42857143    0.14285714
    0.85714286    0.42857143    0.21428571
    0.85714286    0.42857143    0.28571429
    0.85714286    0.42857143    0.35714286
    0.85714286    0.42857143    0.42857143
    0.85714286    0.42857143    0.50000000
    0.85714286    0.42857143    0.57142857
    0.85714286    0.42857143    0.64285714
    0.85714286    0.42857143    0.71428571
    0.85714286    0.42857143    0.78571429
    0.85714286    0.42857143    0.85714286
    0.85714286    0.42857143    0.92857143
    0.85714286    0.57142857    0.00000000
    0.85714286    0.57142857    0.07142857
    0.85714286    0.57142857    0.14285714
    0.85714286    0.57142857    0.21428571
    0.85714286    0.57142857    0.28571429
    0.85714286    0.57142857    0.35714286
    0.85714286    0.57142857    0.42857143
    0.85714286    0.57142857    0.50000000
    0.85714286    0.57142857    0.57142857
    0.85714286    0.57142857    0.64285714
    0.85714286    0.57142857    0.71428571
    0.85714286    0.57142857    0.78571429
    0.85714286    0.57142857    0.85714286
    0.85714286    0.57142857    0.92857143
    0.85714286    0.71428571    0.00000000
    0.85714286    0.71428571    0.07142857
    0.85714286    0.71428571    0.14285714
    0.85714286    0.71428571    0.21428571
    0.85714286    0.71428571    0.28571429
    0.85714286    0.71428571    0.35714286
    0.85714286    0.71428571    0.42857143
    0.85714286    0.71428571    0.50000000
    0.85714286    0.71428571    0.57142857
    0.85714286    0.71428571    0.64285714
    0.85714286    0.71428571    0.71428571
    0.85714286    0.71428571    0.78571429
    0.85714286    0.71428571    0.85714286
    0.85714286    0.71428571    0.92857143
    0.85714286    0.85714286    0.00000000
    0.85714286    0.85714286    0.07142857
    0.85714286    0.85714286    0.14285714
    0.85714286    0.85714286    0.21428571
    0.85714286    0.85714286    0.28571429
    0.85714286    0.85714286    0.35714286
    0.85714286    0.85714286    0.42857143
    0.85714286    0.85714286    0.50000000
    0.85714286    0.85714286    0.57142857
    0.85714286    0.85714286    0.64285714
    0.85714286    0.85714286    0.71428571
    0.85714286    0.85714286    0.78571429
    0.85714286    0.85714286    0.85714286
    0.85714286    0.85714286    0.92857143
end kpoints

begin projections
     2
  -0.06319    1.06319    0.25000     2  4  1
    0.0000000  0.0000000  1.0000000   1.0000000  0.0000000  0.0000000    1.00
  -0.93780    0.93780    0.75000     2  4  1
    0.0000000  0.0000000  1.0000000   1.0000000  0.0000000  0.0000000    1.00
end projections

begin nnkpts
   8
     1   183      0  -1   0
     1   603     -1   0   0
     1     2      0   0   0
     1    14      0   0  -1
     1    15      0   0   0
     1    99      0   0   0
     1    85      0  -1   0
     1   589     -1   0   0
     2   184      0  -1   0
     2   604     -1   0   0
     2     1      0   0   0
     2     3      0   0   0
     2    16      0   0   0
     2   100      0   0   0
     2    86      0  -1   0
     2   590     -1   0   0
     3   185      0  -1   0
     3   605     -1   0   0
     3     2      0   0   0
     3     4      0   0   0
     3    17      0   0   0
     3   101      0   0   0
     3    87      0  -1   0
     3   591     -1   0   0
     4   186      0  -1   0
     4   606     -1   0   0
     4     3      0   0   0
     4     5      0   0   0
     4    18      0   0   0
     4   102      0   0   0
     4    88      0  -1   0
     4   592     -1   0   0
     5   187      0  -1   0
     5   607     -1   0   0
     5     4      0   0   0
     5     6      0   0   0
     5    19      0   0   0
     5   103      0   0   0
     5    89      0  -1   0
     5   593     -1   0   0
     6   188      0  -1   0
     6   608     -1   0   0
     6     5      0   0   0
     6     7      0   0   0
     6    20      0   0   0
     6   104      0   0   0
     6    90      0  -1   0
     6   594     -1   0   0
     7   189      0  -1   0
     7   609     -1   0   0
     7     6      0   0   0
     7     8      0   0   0
     7    21      0   0   0
     7   105      0   0   0
     7    91      0  -1   0
     7   595     -1   0   0
     8   190      0  -1   0
     8   610     -1   0   0
     8     7      0   0   0
     8     9      0   0   0
     8    22      0   0   0
     8   106      0   0   0
     8    92      0  -1   0
     8   596     -1   0   0
     9   191      0  -1   0
     9   611     -1   0   0
     9     8      0   0   0
     9    10      0   0   0
     9    23      0   0   0
     9   107      0   0   0
     9    93      0  -1   0
     9   597     -1   0   0
    10   192      0  -1   0
    10   612     -1   0   0
    10     9      0   0   0
    10    11      0   0   0
    10    24      0   0   0
    10   108      0   0   0
    10    94      0  -1   0
    10   598     -1   0   0
    11   193      0  -1   0
    11   613     -1   0   0
    11    10      0   0   0
    11    12      0   0   0
    11    25      0   0   0
    11   109      0   0   0
    11    95      0  -1   0
    11   599     -1   0   0
    12   194      0  -1   0
    12   614     -1   0   0
    12    11      0   0   0
    12    13      0   0   0
    12    26      0   0   0
    12   110      0   0   0
    12    96      0  -1   0
    12   600     -1   0   0
    13   195      0  -1   0
    13   615     -1   0   0
    13    12      0   0   0
    13    14      0   0   0
    13    27      0   0   0
    13   111      0   0   0
    13    97      0  -1   0
    13   601     -1   0   0
    14   196      0  -1   0
    14   616     -1   0   0
    14    13      0   0   0
    14     1      0   0   1
    14    28      0   0   0
    14   112      0   0   0
    14    98      0  -1   0
    14   602     -1   0   0
    15    99      0   0   0
    15   617     -1   0   0
    15    16      0   0   0
    15    28      0   0  -1
    15     1      0   0   0
    15    29      0   0   0
    15   113      0   0   0
    15   603     -1   0   0
    16   100      0   0   0
    16   618     -1   0   0
    16    15      0   0   0
    16    17      0   0   0
    16     2      0   0   0
    16    30      0   0   0
    16   114      0   0   0
    16   604     -1   0   0
    17   101      0   0   0
    17   619     -1   0   0
    17    16      0   0   0
    17    18      0   0   0
    17     3      0   0   0
    17    31      0   0   0
    17   115      0   0   0
    17   605     -1   0   0
    18   102      0   0   0
    18   620     -1   0   0
    18    17      0   0   0
    18    19      0   0   0
    18     4      0   0   0
    18    32      0   0   0
    18   116      0   0   0
    18   606     -1   0   0
    19   103      0   0   0
    19   621     -1   0   0
    19    18      0   0   0
    19    20      0   0   0
    19     5      0   0   0
    19    33      0   0   0
    19   117      0   0   0
    19   607     -1   0   0
    20   104      0   0   0
    20   622     -1   0   0
    20    19      0   0   0
    20    21      0   0   0
    20     6      0   0   0
    20    34      0   0   0
    20   118      0   0   0
    20   608     -1   0   0
    21   105      0   0   0
    21   623     -1   0   0
    21    20      0   0   0
    21    22      0   0   0
    21     7      0   0   0
    21    35      0   0   0
    21   119      0   0   0
    21   609     -1   0   0
    22   106      0   0   0
    22   624     -1   0   0
    22    21      0   0   0
    22    23      0   0   0
    22     8      0   0   0
    22    36      0   0   0
    22   120      0   0   0
    22   610     -1   0   0
    23   107      0   0   0
    23   625     -1   0   0
    23    22      0   0   0
    23    24      0   0   0
    23     9      0   0   0
    23    37      0   0   0
    23   121      0   0   0
    23   611     -1   0   0
    24   108      0   0   0
    24   626     -1   0   0
    24    23      0   0   0
    24    25      0   0   0
    24    10      0   0   0
    24    38      0   0   0
    24   122      0   0   0
    24   612     -1   0   0
    25   109      0   0   0
    25   627     -1   0   0
    25    24      0   0   0
    25    26      0   0   0
    25    11      0   0   0
    25    39      0   0   0
    25   123      0   0   0
    25   613     -1   0   0
    26   110      0   0   0
    26   628     -1   0   0
    26    25      0   0   0
    26    27      0   0   0
    26    12      0   0   0
    26    40      0   0   0
    26   124      0   0   0
    26   614     -1   0   0
    27   111      0   0   0
    27   629     -1   0   0
    27    26      0   0   0
    27    28      0   0   0
    27    13      0   0   0
    27    41      0   0   0
    27   125      0   0   0
    27   615     -1   0   0
    28   112      0   0   0
    28   630     -1   0   0
    28    27      0   0   0
    28    15      0   0   1
    28    14      0   0   0
    28    42      0   0   0
    28   126      0   0   0
    28   616     -1   0   0
    29   113      0   0   0
    29   631     -1   0   0
    29    30      0   0   0
    29    42      0   0  -1
    29    15      0   0   0
    29    43      0   0   0
    29   127      0   0   0
    29   617     -1   0   0
    30   114      0   0   0
    30   632     -1   0   0
    30    29      0   0   0
    30    31      0   0   0
    30    16      0   0   0
    30    44      0   0   0
    30   128      0   0   0
    30   618     -1   0   0
    31   115      0   0   0
    31   633     -1   0   0
    31    30      0   0   0
    31    32      0   0   0
    31    17      0   0   0
    31    45      0   0   0
    31   129      0   0   0
    31   619     -1   0   0
    32   116      0   0   0
    32   634     -1   0   0
    32    31      0   0   0
    32    33      0   0   0
    32    18      0   0   0
    32    46      0   0   0
    32   130      0   0   0
    32   620     -1   0   0
    33   117      0   0   0
    33   635     -1   0   0
    33    32      0   0   0
    33    34      0   0   0
    33    19      0   0   0
    33    47      0   0   0
    33   131      0   0   0
    33   621     -1   0   0
    34   118      0   0   0
    34   636     -1   0   0
    34    33      0   0   0
    34    35      0   0   0
    34    20      0   0   0
    34    48      0   0   0
    34   132      0   0   0
    34   622     -1   0   0
    35   119      0   0   0
    35   637     -1   0   0
    35    34      0   0   0
    35    36      0   0   0
    35    21      0   0   0
    35    49      0   0   0
    35   133      0   0   0
    35   623     -1   0   0
    36   120      0   0   0
    36   638     -1   0   0
    36    35      0   0   0
    36    37      0   0   0
    36    22      0   0   0
    36    50      0   0   0
    36   134      0   0   0
    36   624     -1   0   0
    37   121      0   0   0
    37   639     -1   0   0
    37    36      0   0   0
    37    38      0   0   0
    37    23      0   0   0
    37    51      0   0   0
    37   135      0   0   0
    37   625     -1   0   0
    38   122      0   0   0
    38   640     -1   0   0
    38    37      0   0   0
    38    39      0   0   0
    38    24      0   0   0
    38    52      0   0   0
    38   136      0   0   0
    38   626     -1   0   0
    39   123      0   0   0
    39   641     -1   0   0
    39    38      0   0   0
    39    40      0   0   0
    39    25      0   0   0
    39    53      0   0   0
    39   137      0   0   0
    39   627     -1   0   0
    40   124      0   0   0
    40   642     -1   0   0
    40    39      0   0   0
    40    41      0   0   0
    40    26      0   0   0
    40    54      0   0   0
    40   138      0   0   0
    40   628     -1   0   0
    41   125      0   0   0
    41   643     -1   0   0
    41    40      0   0   0
    41    42      0   0   0
    41    27      0   0   0
    41    55      0   0   0
    41   139      0   0   0
    41   629     -1   0   0
    42   126      0   0   0
    42   644     -1   0   0
    42    41      0   0   0
    42    29      0   0   1
    42    28      0   0   0
    42    56      0   0   0
    42   140      0   0   0
    42   630     -1   0   0
    43   127      0   0   0
    43   645     -1   0   0
    43    44      0   0   0
    43    56      0   0  -1
    43    29      0   0   0
    43    57      0   0   0
    43   141      0   0   0
    43   631     -1   0   0
    44   128      0   0   0
    44   646     -1   0   0
    44    43      0   0   0
    44    45      0   0   0
    44    30      0   0   0
    44    58      0   0   0
    44   142      0   0   0
    44   632     -1   0   0
    45   129      0   0   0
    45   647     -1   0   0
    45    44      0   0   0
    45    46      0   0   0
    45    31      0   0   0
    45    59      0   0   0
    45   143      0   0   0
    45   633     -1   0   0
    46   130      0   0   0
    46   648     -1   0   0
    46    45      0   0   0
    46    47      0   0   0
    46    32      0   0   0
    46    60      0   0   0
    46   144      0   0   0
    46   634     -1   0   0
    47   131      0   0   0
    47   649     -1   0   0
    47    46      0   0   0
    47    48      0   0   0
    47    33      0   0   0
    47    61      0   0   0
    47   145      0   0   0
    47   635     -1   0   0
    48   132      0   0   0
    48   650     -1   0   0
    48    47      0   0   0
    48    49      0   0   0
    48    34      0   0   0
    48    62      0   0   0
    48   146      0   0   0
    48   636     -1   0   0
    49   133      0   0   0
    49   651     -1   0   0
    49    48      0   0   0
    49    50      0   0   0
    49    35      0   0   0
    49    63      0   0   0
    49   147      0   0   0
    49   637     -1   0   0
    50   134      0   0   0
    50   652     -1   0   0
    50    49      0   0   0
    50    51      0   0   0
    50    36      0   0   0
    50    64      0   0   0
    50   148      0   0   0
    50   638     -1   0   0
    51   135      0   0   0
    51   653     -1   0   0
    51    50      0   0   0
    51    52      0   0   0
    51    37      0   0   0
    51    65      0   0   0
    51   149      0   0   0
    51   639     -1   0   0
    52   136      0   0   0
    52   654     -1   0   0
    52    51      0   0   0
    52    53      0   0   0
    52    38      0   0   0
    52    66      0   0   0
    52   150      0   0   0
    52   640     -1   0   0
    53   137      0   0   0
    53   655     -1   0   0
    53    52      0   0   0
    53    54      0   0   0
    53    39      0   0   0
    53    67      0   0   0
    53   151      0   0   0
    53   641     -1   0   0
    54   138      0   0   0
    54   656     -1   0   0
    54    53      0   0   0
    54    55      0   0   0
    54    40      0   0   0
    54    68      0   0   0
    54   152      0   0   0
    54   642     -1   0   0
    55   139      0   0   0
    55   657     -1   0   0
    55    54      0   0   0
    55    56      0   0   0
    55    41      0   0   0
    55    69      0   0   0
    55   153      0   0   0
    55   643     -1   0   0
    56   140      0   0   0
    56   658     -1   0   0
    56    55      0   0   0
    56    43      0   0   1
    56    42      0   0   0
    56    70      0   0   0
    56   154      0   0   0
    56   644     -1   0   0
    57   141      0   0   0
    57   659     -1   0   0
    57    58      0   0   0
    57    70      0   0  -1
    57    43      0   0   0
    57    71      0   0   0
    57   155      0   0   0
    57   645     -1   0   0
    58   142      0   0   0
    58   660     -1   0   0
    58    57      0   0   0
    58    59      0   0   0
    58    44      0   0   0
    58    72      0   0   0
    58   156      0   0   0
    58   646     -1   0   0
    59   143      0   0   0
    59   661     -1   0   0
    59    58      0   0   0
    59    60      0   0   0
    59    45      0   0   0
    59    73      0   0   0
    59   157      0   0   0
    59   647     -1   0   0
    60   144      0   0   0
    60   662     -1   0   0
    60    59      0   0   0
    60    61      0   0   0
    60    46      0   0   0
    60    74      0   0   0
    60   158      0   0   0
    60   648     -1   0   0
    61   145      0   0   0
    61   663     -1   0   0
    61    60      0   0   0
    61    62      0   0   0
    61    47      0   0   0
    61    75      0   0   0
    61   159      0   0   0
    61   649     -1   0   0
    62   146      0   0   0
    62   664     -1   0   0
    62    61      0   0   0
    62    63      0   0   0
    62    48      0   0   0
    62    76      0   0   0
    62   160      0   0   0
    62   650     -1   0   0
    63   147      0   0   0
    63   665     -1   0   0
    63    62      0   0   0
    63    64      0   0   0
    63    49      0   0   0
    63    77      0   0   0
    63   161      0   0   0
    63   651     -1   0   0
    64   148      0   0   0
    64   666     -1   0   0
    64    63      0   0   0
    64    65      0   0   0
    64    50      0   0   0
    64    78      0   0   0
    64   162      0   0   0
    64   652     -1   0   0
    65   149      0   0   0
    65   667     -1   0   0
    65    64      0   0   0
    65    66      0   0   0
    65    51      0   0   0
    65    79      0   0   0
    65   163      0   0   0
    65   653     -1   0   0
    66   150      0   0   0
    66   668     -1   0   0
    66    65      0   0   0
    66    67      0   0   0
    66    52      0   0   0
    66    80      0   0   0
    66   164      0   0   0
    66   654     -1   0   0
    67   151      0   0   0
    67   669     -1   0   0
    67    66      0   0   0
    67    68      0   0   0
    67    53      0   0   0
    67    81      0   0   0
    67   165      0   0   0
    67   655     -1   0   0
    68   152      0   0   0
    68   670     -1   0   0
    68    67      0   0   0
    68    69      0   0   0
    68    54      0   0   0
    68    82      0   0   0
    68   166      0   0   0
    68   656     -1   0   0
    69   153      0   0   0
    69   671     -1   0   0
    69    68      0   0   0
    69    70      0   0   0
    69    55      0   0   0
    69    83      0   0   0
    69   167      0   0   0
    69   657     -1   0   0
    70   154      0   0   0
    70   672     -1   0   0
    70    69      0   0   0
    70    57      0   0   1
    70    56      0   0   0
    70    84      0   0   0
    70   168      0   0   0
    70   658     -1   0   0
    71   155      0   0   0
    71   673     -1   0   0
    71    72      0   0   0
    71    84      0   0  -1
    71    57      0   0   0
    71    85      0   0   0
    71   169      0   0   0
    71   659     -1   0   0
    72   156      0   0   0
    72   674     -1   0   0
    72    71      0   0   0
    72    73      0   0   0
    72    58      0   0   0
    72    86      0   0   0
    72   170      0   0   0
    72   660     -1   0   0
    73   157      0   0   0
    73   675     -1   0   0
    73    72      0   0   0
    73    74      0   0   0
    73    59      0   0   0
    73    87      0   0   0
    73   171      0   0   0
    73   661     -1   0   0
    74   158      0   0   0
    74   676     -1   0   0
    74    73      0   0   0
    74    75      0   0   0
    74    60      0   0   0
    74    88      0   0   0
    74   172      0   0   0
    74   662     -1   0   0
    75   159      0   0   0
    75   677     -1   0   0
    75    74      0   0   0
    75    76      0   0   0
    75    61      0   0   0
    75    89      0   0   0
    75   173      0   0   0
    75   663     -1   0   0
    76   160      0   0   0
    76   678     -1   0   0
    76    75      0   0   0
    76    77      0   0   0
    76    62      0   0   0
    76    90      0   0   0
    76   174      0   0   0
    76   664     -1   0   0
    77   161      0   0   0
    77   679     -1   0   0
    77    76      0   0   0
    77    78      0   0   0
    77    63      0   0   0
    77    91      0   0   0
    77   175      0   0   0
    77   665     -1   0   0
    78   162      0   0   0
    78   680     -1   0   0
    78    77      0   0   0
    78    79      0   0   0
    78    64      0   0   0
    78    92      0   0   0
    78   176      0   0   0
    78   666     -1   0   0
    79   163      0   0   0
    79   681     -1   0   0
    79    78      0   0   0
    79    80      0   0   0
    79    65      0   0   0
    79    93      0   0   0
    79   177      0   0   0
    79   667     -1   0   0
    80   164      0   0   0
    80   682     -1   0   0
    80    79      0   0   0
    80    81      0   0   0
    80    66      0   0   0
    80    94      0   0   0
    80   178      0   0   0
    80   668     -1   0   0
    81   165      0   0   0
    81   683     -1   0   0
    81    80      0   0   0
    81    82      0   0   0
    81    67      0   0   0
    81    95      0   0   0
    81   179      0   0   0
    81   669     -1   0   0
    82   166      0   0   0
    82   684     -1   0   0
    82    81      0   0   0
    82    83      0   0   0
    82    68      0   0   0
    82    96      0   0   0
    82   180      0   0   0
    82   670     -1   0   0
    83   167      0   0   0
    83   685     -1   0   0
    83    82      0   0   0
    83    84      0   0   0
    83    69      0   0   0
    83    97      0   0   0
    83   181      0   0   0
    83   671     -1   0   0
    84   168      0   0   0
    84   686     -1   0   0
    84    83      0   0   0
    84    71      0   0   1
    84    70      0   0   0
    84    98      0   0   0
    84   182      0   0   0
    84   672     -1   0   0
    85   169      0   0   0
    85   589     -1   1   0
    85    86      0   0   0
    85    98      0   0  -1
    85    71      0   0   0
    85   183      0   0   0
    85     1      0   1   0
    85   673     -1   0   0
    86   170      0   0   0
    86   590     -1   1   0
    86    85      0   0   0
    86    87      0   0   0
    86    72      0   0   0
    86   184      0   0   0
    86     2      0   1   0
    86   674     -1   0   0
    87   171      0   0   0
    87   591     -1   1   0
    87    86      0   0   0
    87    88      0   0   0
    87    73      0   0   0
    87   185      0   0   0
    87     3      0   1   0
    87   675     -1   0   0
    88   172      0   0   0
    88   592     -1   1   0
    88    87      0   0   0
    88    89      0   0   0
    88    74      0   0   0
    88   186      0   0   0
    88     4      0   1   0
    88   676     -1   0   0
    89   173      0   0   0
    89   593     -1   1   0
    89    88      0   0   0
    89    90      0   0   0
    89    75      0   0   0
    89   187      0   0   0
    89     5      0   1   0
    89   677     -1   0   0
    90   174      0   0   0
    90   594     -1   1   0
    90    89      0   0   0
    90    91      0   0   0
    90    76      0   0   0
    90   188      0   0   0
    90     6      0   1   0
    90   678     -1   0   0
    91   175      0   0   0
    91   595     -1   1   0
    91    90      0   0   0
    91    92      0   0   0
    91    77      0   0   0
    91   189      0   0   0
    91     7      0   1   0
    91   679     -1   0   0
    92   176      0   0   0
    92   596     -1   1   0
    92    91      0   0   0
    92    93      0   0   0
    92    78      0   0   0
    92   190      0   0   0
    92     8      0   1   0
    92   680     -1   0   0
    93   177      0   0   0
    93   597     -1   1   0
    93    92      0   0   0
    93    94      0   0   0
    93    79      0   0   0
    93   191      0   0   0
    93     9      0   1   0
    93   681     -1   0   0
    94   178      0   0   0
    94   598     -1   1   0
    94    93      0   0   0
    94    95      0   0   0
    94    80      0   0   0
    94   192      0   0   0
    94    10      0   1   0
    94   682     -1   0   0
    95   179      0   0   0
    95   599     -1   1   0
    95    94      0   0   0
    95    96      0   0   0
    95    81      0   0   0
    95   193      0   0   0
    95    11      0   1   0
    95   683     -1   0   0
    96   180      0   0   0
    96   600     -1   1   0
    96    95      0   0   0
    96    97      0   0   0
    96    82      0   0   0
    96   194      0   0   0
    96    12      0   1   0
    96   684     -1   0   0
    97   181      0   0   0
    97   601     -1   1   0
    97    96      0   0   0
    97    98      0   0   0
    97    83      0   0   0
    97   195      0   0   0
    97    13      0   1   0
    97   685     -1   0   0
    98   182      0   0   0
    98   602     -1   1   0
    98    97      0   0   0
    98    85      0   0   1
    98    84      0   0   0
    98   196      0   0   0
    98    14      0   1   0
    98   686     -1   0   0
    99    15      0   0   0
    99   281      0  -1   0
    99   100      0   0   0
    99   112      0   0  -1
    99     1      0   0   0
    99   113      0   0   0
    99   197      0   0   0
    99   183      0  -1   0
   100    16      0   0   0
   100   282      0  -1   0
   100    99      0   0   0
   100   101      0   0   0
   100     2      0   0   0
   100   114      0   0   0
   100   198      0   0   0
   100   184      0  -1   0
   101    17      0   0   0
   101   283      0  -1   0
   101   100      0   0   0
   101   102      0   0   0
   101     3      0   0   0
   101   115      0   0   0
   101   199      0   0   0
   101   185      0  -1   0
   102    18      0   0   0
   102   284      0  -1   0
   102   101      0   0   0
   102   103      0   0   0
   102     4      0   0   0
   102   116      0   0   0
   102   200      0   0   0
   102   186      0  -1   0
   103    19      0   0   0
   103   285      0  -1   0
   103   102      0   0   0
   103   104      0   0   0
   103     5      0   0   0
   103   117      0   0   0
   103   201      0   0   0
   103   187      0  -1   0
   104    20      0   0   0
   104   286      0  -1   0
   104   103      0   0   0
   104   105      0   0   0
   104     6      0   0   0
   104   118      0   0   0
   104   202      0   0   0
   104   188      0  -1   0
   105    21      0   0   0
   105   287      0  -1   0
   105   104      0   0   0
   105   106      0   0   0
   105     7      0   0   0
   105   119      0   0   0
   105   203      0   0   0
   105   189      0  -1   0
   106    22      0   0   0
   106   288      0  -1   0
   106   105      0   0   0
   106   107      0   0   0
   106     8      0   0   0
   106   120      0   0   0
   106   204      0   0   0
   106   190      0  -1   0
   107    23      0   0   0
   107   289      0  -1   0
   107   106      0   0   0
   107   108      0   0   0
   107     9      0   0   0
   107   121      0   0   0
   107   205      0   0   0
   107   191      0  -1   0
   108    24      0   0   0
   108   290      0  -1   0
   108   107      0   0   0
   108   109      0   0   0
   108    10      0   0   0
   108   122      0   0   0
   108   206      0   0   0
   108   192      0  -1   0
   109    25      0   0   0
   109   291      0  -1   0
   109   108      0   0   0
   109   110      0   0   0
   109    11      0   0   0
   109   123      0   0   0
   109   207      0   0   0
   109   193      0  -1   0
   110    26      0   0   0
   110   292      0  -1   0
   110   109      0   0   0
   110   111      0   0   0
   110    12      0   0   0
   110   124      0   0   0
   110   208      0   0   0
   110   194      0  -1   0
   111    27      0   0   0
   111   293      0  -1   0
   111   110      0   0   0
   111   112      0   0   0
   111    13      0   0   0
   111   125      0   0   0
   111   209      0   0   0
   111   195      0  -1   0
   112    28      0   0   0
   112   294      0  -1   0
   112   111      0   0   0
   112    99      0   0   1
   112    14      0   0   0
   112   126      0   0   0
   112   210      0   0   0
   112   196      0  -1   0
   113    29      0   0   0
   113   197      0   0   0
   113   114      0   0   0
   113   126      0   0  -1
   113    15      0   0   0
   113    99      0   0   0
   113   127      0   0   0
   113   211      0   0   0
   114    30      0   0   0
   114   198      0   0   0
   114   113      0   0   0
   114   115      0   0   0
   114    16      0   0   0
   114   100      0   0   0
   114   128      0   0   0
   114   212      0   0   0
   115    31      0   0   0
   115   199      0   0   0
   115   114      0   0   0
   115   116      0   0   0
   115    17      0   0   0
   115   101      0   0   0
   115   129      0   0   0
   115   213      0   0   0
   116    32      0   0   0
   116   200      0   0   0
   116   115      0   0   0
   116   117      0   0   0
   116    18      0   0   0
   116   102      0   0   0
   116   130      0   0   0
   116   214      0   0   0
   117    33      0   0   0
   117   201      0   0   0
   117   116      0   0   0
   117   118      0   0   0
   117    19      0   0   0
   117   103      0   0   0
   117   131      0   0   0
   117   215      0   0   0
   118    34      0   0   0
   118   202      0   0   0
   118   117      0   0   0
   118   119      0   0   0
   118    20      0   0   0
   118   104      0   0   0
   118   132      0   0   0
   118   216      0   0   0
   119    35      0   0   0
   119   203      0   0   0
   119   118      0   0   0
   119   120      0   0   0
   119    21      0   0   0
   119   105      0   0   0
   119   133      0   0   0
   119   217      0   0   0
   120    36      0   0   0
   120   204      0   0   0
   120   119      0   0   0
   120   121      0   0   0
   120    22      0   0   0
   120   106      0   0   0
   120   134      0   0   0
   120   218      0   0   0
   121    37      0   0   0
   121   205      0   0   0
   121   120      0   0   0
   121   122      0   0   0
   121    23      0   0   0
   121   107      0   0   0
   121   135      0   0   0
   121   219      0   0   0
   122    38      0   0   0
   122   206      0   0   0
   122   121      0   0   0
   122   123      0   0   0
   122    24      0   0   0
   122   108      0   0   0
   122   136      0   0   0
   122   220      0   0   0
   123    39      0   0   0
   123   207      0   0   0
   123   122      0   0   0
   123   124      0   0   0
   123    25      0   0   0
   123   109      0   0   0
   123   137      0   0   0
   123   221      0   0   0
   124    40      0   0   0
   124   208      0   0   0
   124   123      0   0   0
   124   125      0   0   0
   124    26      0   0   0
   124   110      0   0   0
   124   138      0   0   0
   124   222      0   0   0
   125    41      0   0   0
   125   209      0   0   0
   125   124      0   0   0
   125   126      0   0   0
   125    27      0   0   0
   125   111      0   0   0
   125   139      0   0   0
   125   223      0   0   0
   126    42      0   0   0
   126   210      0   0   0
   126   125      0   0   0
   126   113      0   0   1
   126    28      0   0   0
   126   112      0   0   0
   126   140      0   0   0
   126   224      0   0   0
   127    43      0   0   0
   127   211      0   0   0
   127   128      0   0   0
   127   140      0   0  -1
   127    29      0   0   0
   127   113      0   0   0
   127   141      0   0   0
   127   225      0   0   0
   128    44      0   0   0
   128   212      0   0   0
   128   127      0   0   0
   128   129      0   0   0
   128    30      0   0   0
   128   114      0   0   0
   128   142      0   0   0
   128   226      0   0   0
   129    45      0   0   0
   129   213      0   0   0
   129   128      0   0   0
   129   130      0   0   0
   129    31      0   0   0
   129   115      0   0   0
   129   143      0   0   0
   129   227      0   0   0
   130    46      0   0   0
   130   214      0   0   0
   130   129      0   0   0
   130   131      0   0   0
   130    32      0   0   0
   130   116      0   0   0
   130   144      0   0   0
   130   228      0   0   0
   131    47      0   0   0
   131   215      0   0   0
   131   130      0   0   0
   131   132      0   0   0
   131    33      0   0   0
   131   117      0   0   0
   131   145      0   0   0
   131   229      0   0   0
   132    48      0   0   0
   132   216      0   0   0
   132   131      0   0   0
   132   133      0   0   0
   132    34      0   0   0
   132   118      0   0   0
   132   146      0   0   0
   132   230      0   0   0
   133    49      0   0   0
   133   217      0   0   0
   133   132      0   0   0
   133   134      0   0   0
   133    35      0   0   0
   133   119      0   0   0
   133   147      0   0   0
   133   231      0   0   0
   134    50      0   0   0
   134   218      0   0   0
   134   133      0   0   0
   134   135      0   0   0
   134    36      0   0   0
   134   120      0   0   0
   134   148      0   0   0
   134   232      0   0   0
   135    51      0   0   0
   135   219      0   0   0
   135   134      0   0   0
   135   136      0   0   0
   135    37      0   0   0
   135   121      0   0   0
   135   149      0   0   0
   135   233      0   0   0
   136    52      0   0   0
   136   220      0   0   0
   136   135      0   0   0
   136   137      0   0   0
   136    38      0   0   0
   136   122      0   0   0
   136   150      0   0   0
   136   234      0   0   0
   137    53      0   0   0
   137   221      0   0   0
   137   136      0   0   0
   137   138      0   0   0
   137    39      0   0   0
   137   123      0   0   0
   137   151      0   0   0
   137   235      0   0   0
   138    54      0   0   0
   138   222      0   0   0
   138   137      0   0   0
   138   139      0   0   0
   138    40      0   0   0
   138   124      0   0   0
   138   152      0   0   0
   138   236      0   0   0
   139    55      0   0   0
   139   223      0   0   0
   139   138      0   0   0
   139   140      0   0   0
   139    41      0   0   0
   139   125      0   0   0
   139   153      0   0   0
   139   237      0   0   0
   140    56      0   0   0
   140   224      0   0   0
   140   139      0   0   0
   140   127      0   0   1
   140    42      0   0   0
   140   126      0   0   0
   140   154      0   0   0
   140   238      0   0   0
   141    57      0   0   0
   141   225      0   0   0
   141   142      0   0   0
   141   154      0   0  -1
   141    43      0   0   0
   141   127      0   0   0
   141   155      0   0   0
   141   239      0   0   0
   142    58      0   0   0
   142   226      0   0   0
   142   141      0   0   0
   142   143      0   0   0
   142    44      0   0   0
   142   128      0   0   0
   142   156      0   0   0
   142   240      0   0   0
   143    59      0   0   0
   143   227      0   0   0
   143   142      0   0   0
   143   144      0   0   0
   143    45      0   0   0
   143   129      0   0   0
   143   157      0   0   0
   143   241      0   0   0
   144    60      0   0   0
   144   228      0   0   0
   144   143      0   0   0
   144   145      0   0   0
   144    46      0   0   0
   144   130      0   0   0
   144   158      0   0   0
   144   242      0   0   0
   145    61      0   0   0
   145   229      0   0   0
   145   144      0   0   0
   145   146      0   0   0
   145    47      0   0   0
   145   131      0   0   0
   145   159      0   0   0
   145   243      0   0   0
   146    62      0   0   0
   146   230      0   0   0
   146   145      0   0   0
   146   147      0   0   0
   146    48      0   0   0
   146   132      0   0   0
   146   160      0   0   0
   146   244      0   0   0
   147    63      0   0   0
   147   231      0   0   0
   147   146      0   0   0
   147   148      0   0   0
   147    49      0   0   0
   147   133      0   0   0
   147   161      0   0   0
   147   245      0   0   0
   148    64      0   0   0
   148   232      0   0   0
   148   147      0   0   0
   148   149      0   0   0
   148    50      0   0   0
   148   134      0   0   0
   148   162      0   0   0
   148   246      0   0   0
   149    65      0   0   0
   149   233      0   0   0
   149   148      0   0   0
   149   150      0   0   0
   149    51      0   0   0
   149   135      0   0   0
   149   163      0   0   0
   149   247      0   0   0
   150    66      0   0   0
   150   234      0   0   0
   150   149      0   0   0
   150   151      0   0   0
   150    52      0   0   0
   150   136      0   0   0
   150   164      0   0   0
   150   248      0   0   0
   151    67      0   0   0
   151   235      0   0   0
   151   150      0   0   0
   151   152      0   0   0
   151    53      0   0   0
   151   137      0   0   0
   151   165      0   0   0
   151   249      0   0   0
   152    68      0   0   0
   152   236      0   0   0
   152   151      0   0   0
   152   153      0   0   0
   152    54      0   0   0
   152   138      0   0   0
   152   166      0   0   0
   152   250      0   0   0
   153    69      0   0   0
   153   237      0   0   0
   153   152      0   0   0
   153   154      0   0   0
   153    55      0   0   0
   153   139      0   0   0
   153   167      0   0   0
   153   251      0   0   0
   154    70      0   0   0
   154   238      0   0   0
   154   153      0   0   0
   154   141      0   0   1
   154    56      0   0   0
   154   140      0   0   0
   154   168      0   0   0
   154   252      0   0   0
   155    71      0   0   0
   155   239      0   0   0
   155   156      0   0   0
   155   168      0   0  -1
   155    57      0   0   0
   155   141      0   0   0
   155   169      0   0   0
   155   253      0   0   0
   156    72      0   0   0
   156   240      0   0   0
   156   155      0   0   0
   156   157      0   0   0
   156    58      0   0   0
   156   142      0   0   0
   156   170      0   0   0
   156   254      0   0   0
   157    73      0   0   0
   157   241      0   0   0
   157   156      0   0   0
   157   158      0   0   0
   157    59      0   0   0
   157   143      0   0   0
   157   171      0   0   0
   157   255      0   0   0
   158    74      0   0   0
   158   242      0   0   0
   158   157      0   0   0
   158   159      0   0   0
   158    60      0   0   0
   158   144      0   0   0
   158   172      0   0   0
   158   256      0   0   0
   159    75      0   0   0
   159   243      0   0   0
   159   158      0   0   0
   159   160      0   0   0
   159    61      0   0   0
   159   145      0   0   0
   159   173      0   0   0
   159   257      0   0   0
   160    76      0   0   0
   160   244      0   0   0
   160   159      0   0   0
   160   161      0   0   0
   160    62      0   0   0
   160   146      0   0   0
   160   174      0   0   0
   160   258      0   0   0
   161    77      0   0   0
   161   245      0   0   0
   161   160      0   0   0
   161   162      0   0   0
   161    63      0   0   0
   161   147      0   0   0
   161   175      0   0   0
   161   259      0   0   0
   162    78      0   0   0
   162   246      0   0   0
   162   161      0   0   0
   162   163      0   0   0
   162    64      0   0   0
   162   148      0   0   0
   162   176      0   0   0
   162   260      0   0   0
   163    79      0   0   0
   163   247      0   0   0
   163   162      0   0   0
   163   164      0   0   0
   163    65      0   0   0
   163   149      0   0   0
   163   177      0   0   0
   163   261      0   0   0
   164    80      0   0   0
   164   248      0   0   0
   164   163      0   0   0
   164   165      0   0   0
   164    66      0   0   0
   164   150      0   0   0
   164   178      0   0   0
   164   262      0   0   0
   165    81      0   0   0
   165   249      0   0   0
   165   164      0   0   0
   165   166      0   0   0
   165    67      0   0   0
   165   151      0   0   0
   165   179      0   0   0
   165   263      0   0   0
   166    82      0   0   0
   166   250      0   0   0
   166   165      0   0   0
   166   167      0   0   0
   166    68      0   0   0
   166   152      0   0   0
   166   180      0   0   0
   166   264      0   0   0
   167    83      0   0   0
   167   251      0   0   0
   167   166      0   0   0
   167   168      0   0   0
   167    69      0   0   0
   167   153      0   0   0
   167   181      0   0   0
   167   265      0   0   0
   168    84      0   0   0
   168   252      0   0   0
   168   167      0   0   0
   168   155      0   0   1
   168    70      0   0   0
   168   154      0   0   0
   168   182      0   0   0
   168   266      0   0   0
   169    85      0   0   0
   169   253      0   0   0
   169   170      0   0   0
   169   182      0   0  -1
   169    71      0   0   0
   169   155      0   0   0
   169   183      0   0   0
   169   267      0   0   0
   170    86      0   0   0
   170   254      0   0   0
   170   169      0   0   0
   170   171      0   0   0
   170    72      0   0   0
   170   156      0   0   0
   170   184      0   0   0
   170   268      0   0   0
   171    87      0   0   0
   171   255      0   0   0
   171   170      0   0   0
   171   172      0   0   0
   171    73      0   0   0
   171   157      0   0   0
   171   185      0   0   0
   171   269      0   0   0
   172    88      0   0   0
   172   256      0   0   0
   172   171      0   0   0
   172   173      0   0   0
   172    74      0   0   0
   172   158      0   0   0
   172   186      0   0   0
   172   270      0   0   0
   173    89      0   0   0
   173   257      0   0   0
   173   172      0   0   0
   173   174      0   0   0
   173    75      0   0   0
   173   159      0   0   0
   173   187      0   0   0
   173   271      0   0   0
   174    90      0   0   0
   174   258      0   0   0
   174   173      0   0   0
   174   175      0   0   0
   174    76      0   0   0
   174   160      0   0   0
   174   188      0   0   0
   174   272      0   0   0
   175    91      0   0   0
   175   259      0   0   0
   175   174      0   0   0
   175   176      0   0   0
   175    77      0   0   0
   175   161      0   0   0
   175   189      0   0   0
   175   273      0   0   0
   176    92      0   0   0
   176   260      0   0   0
   176   175      0   0   0
   176   177      0   0   0
   176    78      0   0   0
   176   162      0   0   0
   176   190      0   0   0
   176   274      0   0   0
   177    93      0   0   0
   177   261      0   0   0
   177   176      0   0   0
   177   178      0   0   0
   177    79      0   0   0
   177   163      0   0   0
   177   191      0   0   0
   177   275      0   0   0
   178    94      0   0   0
   178   262      0   0   0
   178   177      0   0   0
   178   179      0   0   0
   178    80      0   0   0
   178   164      0   0   0
   178   192      0   0   0
   178   276      0   0   0
   179    95      0   0   0
   179   263      0   0   0
   179   178      0   0   0
   179   180      0   0   0
   179    81      0   0   0
   179   165      0   0   0
   179   193      0   0   0
   179   277      0   0   0
   180    96      0   0   0
   180   264      0   0   0
   180   179      0   0   0
   180   181      0   0   0
   180    82      0   0   0
   180   166      0   0   0
   180   194      0   0   0
   180   278      0   0   0
   181    97      0   0   0
   181   265      0   0   0
   181   180      0   0   0
   181   182      0   0   0
   181    83      0   0   0
   181   167      0   0   0
   181   195      0   0   0
   181   279      0   0   0
   182    98      0   0   0
   182   266      0   0   0
   182   181      0   0   0
   182   169      0   0   1
   182    84      0   0   0
   182   168      0   0   0
   182   196      0   0   0
   182   280      0   0   0
   183   267      0   0   0
   183     1      0   1   0
   183   184      0   0   0
   183   196      0   0  -1
   183    85      0   0   0
   183   169      0   0   0
   183   281      0   0   0
   183    99      0   1   0
   184   268      0   0   0
   184     2      0   1   0
   184   183      0   0   0
   184   185      0   0   0
   184    86      0   0   0
   184   170      0   0   0
   184   282      0   0   0
   184   100      0   1   0
   185   269      0   0   0
   185     3      0   1   0
   185   184      0   0   0
   185   186      0   0   0
   185    87      0   0   0
   185   171      0   0   0
   185   283      0   0   0
   185   101      0   1   0
   186   270      0   0   0
   186     4      0   1   0
   186   185      0   0   0
   186   187      0   0   0
   186    88      0   0   0
   186   172      0   0   0
   186   284      0   0   0
   186   102      0   1   0
   187   271      0   0   0
   187     5      0   1   0
   187   186      0   0   0
   187   188      0   0   0
   187    89      0   0   0
   187   173      0   0   0
   187   285      0   0   0
   187   103      0   1   0
   188   272      0   0   0
   188     6      0   1   0
   188   187      0   0   0
   188   189      0   0   0
   188    90      0   0   0
   188   174      0   0   0
   188   286      0   0   0
   188   104      0   1   0
   189   273      0   0   0
   189     7      0   1   0
   189   188      0   0   0
   189   190      0   0   0
   189    91      0   0   0
   189   175      0   0   0
   189   287      0   0   0
   189   105      0   1   0
   190   274      0   0   0
   190     8      0   1   0
   190   189      0   0   0
   190   191      0   0   0
   190    92      0   0   0
   190   176      0   0   0
   190   288      0   0   0
   190   106      0   1   0
   191   275      0   0   0
   191     9      0   1   0
   191   190      0   0   0
   191   192      0   0   0
   191    93      0   0   0
   191   177      0   0   0
   191   289      0   0   0
   191   107      0   1   0
   192   276      0   0   0
   192    10      0   1   0
   192   191      0   0   0
   192   193      0   0   0
   192    94      0   0   0
   192   178      0   0   0
   192   290      0   0   0
   192   108      0   1   0
   193   277      0   0   0
   193    11      0   1   0
   193   192      0   0   0
   193   194      0   0   0
   193    95      0   0   0
   193   179      0   0   0
   193   291      0   0   0
   193   109      0   1   0
   194   278      0   0   0
   194    12      0   1   0
   194   193      0   0   0
   194   195      0   0   0
   194    96      0   0   0
   194   180      0   0   0
   194   292      0   0   0
   194   110      0   1   0
   195   279      0   0   0
   195    13      0   1   0
   195   194      0   0   0
   195   196      0   0   0
   195    97      0   0   0
   195   181      0   0   0
   195   293      0   0   0
   195   111      0   1   0
   196   280      0   0   0
   196    14      0   1   0
   196   195      0   0   0
   196   183      0   0   1
   196    98      0   0   0
   196   182      0   0   0
   196   294      0   0   0
   196   112      0   1   0
   197   113      0   0   0
   197   379      0  -1   0
   197   198      0   0   0
   197   210      0   0  -1
   197    99      0   0   0
   197   211      0   0   0
   197   295      0   0   0
   197   281      0  -1   0
   198   114      0   0   0
   198   380      0  -1   0
   198   197      0   0   0
   198   199      0   0   0
   198   100      0   0   0
   198   212      0   0   0
   198   296      0   0   0
   198   282      0  -1   0
   199   115      0   0   0
   199   381      0  -1   0
   199   198      0   0   0
   199   200      0   0   0
   199   101      0   0   0
   199   213      0   0   0
   199   297      0   0   0
   199   283      0  -1   0
   200   116      0   0   0
   200   382      0  -1   0
   200   199      0   0   0
   200   201      0   0   0
   200   102      0   0   0
   200   214      0   0   0
   200   298      0   0   0
   200   284      0  -1   0
   201   117      0   0   0
   201   383      0  -1   0
   201   200      0   0   0
   201   202      0   0   0
   201   103      0   0   0
   201   215      0   0   0
   201   299      0   0   0
   201   285      0  -1   0
   202   118      0   0   0
   202   384      0  -1   0
   202   201      0   0   0
   202   203      0   0   0
   202   104      0   0   0
   202   216      0   0   0
   202   300      0   0   0
   202   286      0  -1   0
   203   119      0   0   0
   203   385      0  -1   0
   203   202      0   0   0
   203   204      0   0   0
   203   105      0   0   0
   203   217      0   0   0
   203   301      0   0   0
   203   287      0  -1   0
   204   120      0   0   0
   204   386      0  -1   0
   204   203      0   0   0
   204   205      0   0   0
   204   106      0   0   0
   204   218      0   0   0
   204   302      0   0   0
   204   288      0  -1   0
   205   121      0   0   0
   205   387      0  -1   0
   205   204      0   0   0
   205   206      0   0   0
   205   107      0   0   0
   205   219      0   0   0
   205   303      0   0   0
   205   289      0  -1   0
   206   122      0   0   0
   206   388      0  -1   0
   206   205      0   0   0
   206   207      0   0   0
   206   108      0   0   0
   206   220      0   0   0
   206   304      0   0   0
   206   290      0  -1   0
   207   123      0   0   0
   207   389      0  -1   0
   207   206      0   0   0
   207   208      0   0   0
   207   109      0   0   0
   207   221      0   0   0
   207   305      0   0   0
   207   291      0  -1   0
   208   124      0   0   0
   208   390      0  -1   0
   208   207      0   0   0
   208   209      0   0   0
   208   110      0   0   0
   208   222      0   0   0
   208   306      0   0   0
   208   292      0  -1   0
   209   125      0   0   0
   209   391      0  -1   0
   209   208      0   0   0
   209   210      0   0   0
   209   111      0   0   0
   209   223      0   0   0
   209   307      0   0   0
   209   293      0  -1   0
   210   126      0   0   0
   210   392      0  -1   0
   210   209      0   0   0
   210   197      0   0   1
   210   112      0   0   0
   210   224      0   0   0
   210   308      0   0   0
   210   294      0  -1   0
   211   127      0   0   0
   211   295      0   0   0
   211   212      0   0   0
   211   224      0   0  -1
   211   113      0   0   0
   211   197      0   0   0
   211   225      0   0   0
   211   309      0   0   0
   212   128      0   0   0
   212   296      0   0   0
   212   211      0   0   0
   212   213      0   0   0
   212   114      0   0   0
   212   198      0   0   0
   212   226      0   0   0
   212   310      0   0   0
   213   129      0   0   0
   213   297      0   0   0
   213   212      0   0   0
   213   214      0   0   0
   213   115      0   0   0
   213   199      0   0   0
   213   227      0   0   0
   213   311      0   0   0
   214   130      0   0   0
   214   298      0   0   0
   214   213      0   0   0
   214   215      0   0   0
   214   116      0   0   0
   214   200      0   0   0
   214   228      0   0   0
   214   312      0   0   0
   215   131      0   0   0
   215   299      0   0   0
   215   214      0   0   0
   215   216      0   0   0
   215   117      0   0   0
   215   201      0   0   0
   215   229      0   0   0
   215   313      0   0   0
   216   132      0   0   0
   216   300      0   0   0
   216   215      0   0   0
   216   217      0   0   0
   216   118      0   0   0
   216   202      0   0   0
   216   230      0   0   0
   216   314      0   0   0
   217   133      0   0   0
   217   301      0   0   0
   217   216      0   0   0
   217   218      0   0   0
   217   119      0   0   0
   217   203      0   0   0
   217   231      0   0   0
   217   315      0   0   0
   218   134      0   0   0
   218   302      0   0   0
   218   217      0   0   0
   218   219      0   0   0
   218   120      0   0   0
   218   204      0   0   0
   218   232      0   0   0
   218   316      0   0   0
   219   135      0   0   0
   219   303      0   0   0
   219   218      0   0   0
   219   220      0   0   0
   219   121      0   0   0
   219   205      0   0   0
   219   233      0   0   0
   219   317      0   0   0
   220   136      0   0   0
   220   304      0   0   0
   220   219      0   0   0
   220   221      0   0   0
   220   122      0   0   0
   220   206      0   0   0
   220   234      0   0   0
   220   318      0   0   0
   221   137      0   0   0
   221   305      0   0   0
   221   220      0   0   0
   221   222      0   0   0
   221   123      0   0   0
   221   207      0   0   0
   221   235      0   0   0
   221   319      0   0   0
   222   138      0   0   0
   222   306      0   0   0
   222   221      0   0   0
   222   223      0   0   0
   222   124      0   0   0
   222   208      0   0   0
   222   236      0   0   0
   222   320      0   0   0
   223   139      0   0   0
   223   307      0   0   0
[...]
   599   515      0   0   0
   599    95      1  -1   0
   599   598      0   0   0
   599   600      0   0   0
   599   501      0   0   0
   599   613      0   0   0
   599    11      1   0   0
   599   683      0  -1   0
   600   516      0   0   0
   600    96      1  -1   0
   600   599      0   0   0
   600   601      0   0   0
   600   502      0   0   0
   600   614      0   0   0
   600    12      1   0   0
   600   684      0  -1   0
   601   517      0   0   0
   601    97      1  -1   0
   601   600      0   0   0
   601   602      0   0   0
   601   503      0   0   0
   601   615      0   0   0
   601    13      1   0   0
   601   685      0  -1   0
   602   518      0   0   0
   602    98      1  -1   0
   602   601      0   0   0
   602   589      0   0   1
   602   504      0   0   0
   602   616      0   0   0
   602    14      1   0   0
   602   686      0  -1   0
   603   519      0   0   0
   603     1      1   0   0
   603   604      0   0   0
   603   616      0   0  -1
   603   505      0   0   0
   603   589      0   0   0
   603   617      0   0   0
   603    15      1   0   0
   604   520      0   0   0
   604     2      1   0   0
   604   603      0   0   0
   604   605      0   0   0
   604   506      0   0   0
   604   590      0   0   0
   604   618      0   0   0
   604    16      1   0   0
   605   521      0   0   0
   605     3      1   0   0
   605   604      0   0   0
   605   606      0   0   0
   605   507      0   0   0
   605   591      0   0   0
   605   619      0   0   0
   605    17      1   0   0
   606   522      0   0   0
   606     4      1   0   0
   606   605      0   0   0
   606   607      0   0   0
   606   508      0   0   0
   606   592      0   0   0
   606   620      0   0   0
   606    18      1   0   0
   607   523      0   0   0
   607     5      1   0   0
   607   606      0   0   0
   607   608      0   0   0
   607   509      0   0   0
   607   593      0   0   0
   607   621      0   0   0
   607    19      1   0   0
   608   524      0   0   0
   608     6      1   0   0
   608   607      0   0   0
   608   609      0   0   0
   608   510      0   0   0
   608   594      0   0   0
   608   622      0   0   0
   608    20      1   0   0
   609   525      0   0   0
   609     7      1   0   0
   609   608      0   0   0
   609   610      0   0   0
   609   511      0   0   0
   609   595      0   0   0
   609   623      0   0   0
   609    21      1   0   0
   610   526      0   0   0
   610     8      1   0   0
   610   609      0   0   0
   610   611      0   0   0
   610   512      0   0   0
   610   596      0   0   0
   610   624      0   0   0
   610    22      1   0   0
   611   527      0   0   0
   611     9      1   0   0
   611   610      0   0   0
   611   612      0   0   0
   611   513      0   0   0
   611   597      0   0   0
   611   625      0   0   0
   611    23      1   0   0
   612   528      0   0   0
   612    10      1   0   0
   612   611      0   0   0
   612   613      0   0   0
   612   514      0   0   0
   612   598      0   0   0
   612   626      0   0   0
   612    24      1   0   0
   613   529      0   0   0
   613    11      1   0   0
   613   612      0   0   0
   613   614      0   0   0
   613   515      0   0   0
   613   599      0   0   0
   613   627      0   0   0
   613    25      1   0   0
   614   530      0   0   0
   614    12      1   0   0
   614   613      0   0   0
   614   615      0   0   0
   614   516      0   0   0
   614   600      0   0   0
   614   628      0   0   0
   614    26      1   0   0
   615   531      0   0   0
   615    13      1   0   0
   615   614      0   0   0
   615   616      0   0   0
   615   517      0   0   0
   615   601      0   0   0
   615   629      0   0   0
   615    27      1   0   0
   616   532      0   0   0
   616    14      1   0   0
   616   615      0   0   0
   616   603      0   0   1
   616   518      0   0   0
   616   602      0   0   0
   616   630      0   0   0
   616    28      1   0   0
   617   533      0   0   0
   617    15      1   0   0
   617   618      0   0   0
   617   630      0   0  -1
   617   519      0   0   0
   617   603      0   0   0
   617   631      0   0   0
   617    29      1   0   0
   618   534      0   0   0
   618    16      1   0   0
   618   617      0   0   0
   618   619      0   0   0
   618   520      0   0   0
   618   604      0   0   0
   618   632      0   0   0
   618    30      1   0   0
   619   535      0   0   0
   619    17      1   0   0
   619   618      0   0   0
   619   620      0   0   0
   619   521      0   0   0
   619   605      0   0   0
   619   633      0   0   0
   619    31      1   0   0
   620   536      0   0   0
   620    18      1   0   0
   620   619      0   0   0
   620   621      0   0   0
   620   522      0   0   0
   620   606      0   0   0
   620   634      0   0   0
   620    32      1   0   0
   621   537      0   0   0
   621    19      1   0   0
   621   620      0   0   0
   621   622      0   0   0
   621   523      0   0   0
   621   607      0   0   0
   621   635      0   0   0
   621    33      1   0   0
   622   538      0   0   0
   622    20      1   0   0
   622   621      0   0   0
   622   623      0   0   0
   622   524      0   0   0
   622   608      0   0   0
   622   636      0   0   0
   622    34      1   0   0
   623   539      0   0   0
   623    21      1   0   0
   623   622      0   0   0
   623   624      0   0   0
   623   525      0   0   0
   623   609      0   0   0
   623   637      0   0   0
   623    35      1   0   0
   624   540      0   0   0
   624    22      1   0   0
   624   623      0   0   0
   624   625      0   0   0
   624   526      0   0   0
   624   610      0   0   0
   624   638      0   0   0
   624    36      1   0   0
   625   541      0   0   0
   625    23      1   0   0
   625   624      0   0   0
   625   626      0   0   0
   625   527      0   0   0
   625   611      0   0   0
   625   639      0   0   0
   625    37      1   0   0
   626   542      0   0   0
   626    24      1   0   0
   626   625      0   0   0
   626   627      0   0   0
   626   528      0   0   0
   626   612      0   0   0
   626   640      0   0   0
   626    38      1   0   0
   627   543      0   0   0
   627    25      1   0   0
   627   626      0   0   0
   627   628      0   0   0
   627   529      0   0   0
   627   613      0   0   0
   627   641      0   0   0
   627    39      1   0   0
   628   544      0   0   0
   628    26      1   0   0
   628   627      0   0   0
   628   629      0   0   0
   628   530      0   0   0
   628   614      0   0   0
   628   642      0   0   0
   628    40      1   0   0
   629   545      0   0   0
   629    27      1   0   0
   629   628      0   0   0
   629   630      0   0   0
   629   531      0   0   0
   629   615      0   0   0
   629   643      0   0   0
   629    41      1   0   0
   630   546      0   0   0
   630    28      1   0   0
   630   629      0   0   0
   630   617      0   0   1
   630   532      0   0   0
   630   616      0   0   0
   630   644      0   0   0
   630    42      1   0   0
   631   547      0   0   0
   631    29      1   0   0
   631   632      0   0   0
   631   644      0   0  -1
   631   533      0   0   0
   631   617      0   0   0
   631   645      0   0   0
   631    43      1   0   0
   632   548      0   0   0
   632    30      1   0   0
   632   631      0   0   0
   632   633      0   0   0
   632   534      0   0   0
   632   618      0   0   0
   632   646      0   0   0
   632    44      1   0   0
   633   549      0   0   0
   633    31      1   0   0
   633   632      0   0   0
   633   634      0   0   0
   633   535      0   0   0
   633   619      0   0   0
   633   647      0   0   0
   633    45      1   0   0
   634   550      0   0   0
   634    32      1   0   0
   634   633      0   0   0
   634   635      0   0   0
   634   536      0   0   0
   634   620      0   0   0
   634   648      0   0   0
   634    46      1   0   0
   635   551      0   0   0
   635    33      1   0   0
   635   634      0   0   0
   635   636      0   0   0
   635   537      0   0   0
   635   621      0   0   0
   635   649      0   0   0
   635    47      1   0   0
   636   552      0   0   0
   636    34      1   0   0
   636   635      0   0   0
   636   637      0   0   0
   636   538      0   0   0
   636   622      0   0   0
   636   650      0   0   0
   636    48      1   0   0
   637   553      0   0   0
   637    35      1   0   0
   637   636      0   0   0
   637   638      0   0   0
   637   539      0   0   0
   637   623      0   0   0
   637   651      0   0   0
   637    49      1   0   0
   638   554      0   0   0
   638    36      1   0   0
   638   637      0   0   0
   638   639      0   0   0
   638   540      0   0   0
   638   624      0   0   0
   638   652      0   0   0
   638    50      1   0   0
   639   555      0   0   0
   639    37      1   0   0
   639   638      0   0   0
   639   640      0   0   0
   639   541      0   0   0
   639   625      0   0   0
   639   653      0   0   0
   639    51      1   0   0
   640   556      0   0   0
   640    38      1   0   0
   640   639      0   0   0
   640   641      0   0   0
   640   542      0   0   0
   640   626      0   0   0
   640   654      0   0   0
   640    52      1   0   0
   641   557      0   0   0
   641    39      1   0   0
   641   640      0   0   0
   641   642      0   0   0
   641   543      0   0   0
   641   627      0   0   0
   641   655      0   0   0
   641    53      1   0   0
   642   558      0   0   0
   642    40      1   0   0
   642   641      0   0   0
   642   643      0   0   0
   642   544      0   0   0
   642   628      0   0   0
   642   656      0   0   0
   642    54      1   0   0
   643   559      0   0   0
   643    41      1   0   0
   643   642      0   0   0
   643   644      0   0   0
   643   545      0   0   0
   643   629      0   0   0
   643   657      0   0   0
   643    55      1   0   0
   644   560      0   0   0
   644    42      1   0   0
   644   643      0   0   0
   644   631      0   0   1
   644   546      0   0   0
   644   630      0   0   0
   644   658      0   0   0
   644    56      1   0   0
   645   561      0   0   0
   645    43      1   0   0
   645   646      0   0   0
   645   658      0   0  -1
   645   547      0   0   0
   645   631      0   0   0
   645   659      0   0   0
   645    57      1   0   0
   646   562      0   0   0
   646    44      1   0   0
   646   645      0   0   0
   646   647      0   0   0
   646   548      0   0   0
   646   632      0   0   0
   646   660      0   0   0
   646    58      1   0   0
   647   563      0   0   0
   647    45      1   0   0
   647   646      0   0   0
   647   648      0   0   0
   647   549      0   0   0
   647   633      0   0   0
   647   661      0   0   0
   647    59      1   0   0
   648   564      0   0   0
   648    46      1   0   0
   648   647      0   0   0
   648   649      0   0   0
   648   550      0   0   0
   648   634      0   0   0
   648   662      0   0   0
   648    60      1   0   0
   649   565      0   0   0
   649    47      1   0   0
   649   648      0   0   0
   649   650      0   0   0
   649   551      0   0   0
   649   635      0   0   0
   649   663      0   0   0
   649    61      1   0   0
   650   566      0   0   0
   650    48      1   0   0
   650   649      0   0   0
   650   651      0   0   0
   650   552      0   0   0
   650   636      0   0   0
   650   664      0   0   0
   650    62      1   0   0
   651   567      0   0   0
   651    49      1   0   0
   651   650      0   0   0
   651   652      0   0   0
   651   553      0   0   0
   651   637      0   0   0
   651   665      0   0   0
   651    63      1   0   0
   652   568      0   0   0
   652    50      1   0   0
   652   651      0   0   0
   652   653      0   0   0
   652   554      0   0   0
   652   638      0   0   0
   652   666      0   0   0
   652    64      1   0   0
   653   569      0   0   0
   653    51      1   0   0
   653   652      0   0   0
   653   654      0   0   0
   653   555      0   0   0
   653   639      0   0   0
   653   667      0   0   0
   653    65      1   0   0
   654   570      0   0   0
   654    52      1   0   0
   654   653      0   0   0
   654   655      0   0   0
   654   556      0   0   0
   654   640      0   0   0
   654   668      0   0   0
   654    66      1   0   0
   655   571      0   0   0
   655    53      1   0   0
   655   654      0   0   0
   655   656      0   0   0
   655   557      0   0   0
   655   641      0   0   0
   655   669      0   0   0
   655    67      1   0   0
   656   572      0   0   0
   656    54      1   0   0
   656   655      0   0   0
   656   657      0   0   0
   656   558      0   0   0
   656   642      0   0   0
   656   670      0   0   0
   656    68      1   0   0
   657   573      0   0   0
   657    55      1   0   0
   657   656      0   0   0
   657   658      0   0   0
   657   559      0   0   0
   657   643      0   0   0
   657   671      0   0   0
   657    69      1   0   0
   658   574      0   0   0
   658    56      1   0   0
   658   657      0   0   0
   658   645      0   0   1
   658   560      0   0   0
   658   644      0   0   0
   658   672      0   0   0
   658    70      1   0   0
   659   575      0   0   0
   659    57      1   0   0
   659   660      0   0   0
   659   672      0   0  -1
   659   561      0   0   0
   659   645      0   0   0
   659   673      0   0   0
   659    71      1   0   0
   660   576      0   0   0
   660    58      1   0   0
   660   659      0   0   0
   660   661      0   0   0
   660   562      0   0   0
   660   646      0   0   0
   660   674      0   0   0
   660    72      1   0   0
   661   577      0   0   0
   661    59      1   0   0
   661   660      0   0   0
   661   662      0   0   0
   661   563      0   0   0
   661   647      0   0   0
   661   675      0   0   0
   661    73      1   0   0
   662   578      0   0   0
   662    60      1   0   0
   662   661      0   0   0
   662   663      0   0   0
   662   564      0   0   0
   662   648      0   0   0
   662   676      0   0   0
   662    74      1   0   0
   663   579      0   0   0
   663    61      1   0   0
   663   662      0   0   0
   663   664      0   0   0
   663   565      0   0   0
   663   649      0   0   0
   663   677      0   0   0
   663    75      1   0   0
   664   580      0   0   0
   664    62      1   0   0
   664   663      0   0   0
   664   665      0   0   0
   664   566      0   0   0
   664   650      0   0   0
   664   678      0   0   0
   664    76      1   0   0
   665   581      0   0   0
   665    63      1   0   0
   665   664      0   0   0
   665   666      0   0   0
   665   567      0   0   0
   665   651      0   0   0
   665   679      0   0   0
   665    77      1   0   0
   666   582      0   0   0
   666    64      1   0   0
   666   665      0   0   0
   666   667      0   0   0
   666   568      0   0   0
   666   652      0   0   0
   666   680      0   0   0
   666    78      1   0   0
   667   583      0   0   0
   667    65      1   0   0
   667   666      0   0   0
   667   668      0   0   0
   667   569      0   0   0
   667   653      0   0   0
   667   681      0   0   0
   667    79      1   0   0
   668   584      0   0   0
   668    66      1   0   0
   668   667      0   0   0
   668   669      0   0   0
   668   570      0   0   0
   668   654      0   0   0
   668   682      0   0   0
   668    80      1   0   0
   669   585      0   0   0
   669    67      1   0   0
   669   668      0   0   0
   669   670      0   0   0
   669   571      0   0   0
   669   655      0   0   0
   669   683      0   0   0
   669    81      1   0   0
   670   586      0   0   0
   670    68      1   0   0
   670   669      0   0   0
   670   671      0   0   0
   670   572      0   0   0
   670   656      0   0   0
   670   684      0   0   0
   670    82      1   0   0
   671   587      0   0   0
   671    69      1   0   0
   671   670      0   0   0
   671   672      0   0   0
   671   573      0   0   0
   671   657      0   0   0
   671   685      0   0   0
   671    83      1   0   0
   672   588      0   0   0
   672    70      1   0   0
   672   671      0   0   0
   672   659      0   0   1
   672   574      0   0   0
   672   658      0   0   0
   672   686      0   0   0
   672    84      1   0   0
   673    71      1   0   0
   673   491      0   1   0
   673   674      0   0   0
   673   686      0   0  -1
   673   575      0   0   0
   673   659      0   0   0
   673    85      1   0   0
   673   589      0   1   0
   674    72      1   0   0
   674   492      0   1   0
   674   673      0   0   0
   674   675      0   0   0
   674   576      0   0   0
   674   660      0   0   0
   674    86      1   0   0
   674   590      0   1   0
   675    73      1   0   0
   675   493      0   1   0
   675   674      0   0   0
   675   676      0   0   0
   675   577      0   0   0
   675   661      0   0   0
   675    87      1   0   0
   675   591      0   1   0
   676    74      1   0   0
   676   494      0   1   0
   676   675      0   0   0
   676   677      0   0   0
   676   578      0   0   0
   676   662      0   0   0
   676    88      1   0   0
   676   592      0   1   0
   677    75      1   0   0
   677   495      0   1   0
   677   676      0   0   0
   677   678      0   0   0
   677   579      0   0   0
   677   663      0   0   0
   677    89      1   0   0
   677   593      0   1   0
   678    76      1   0   0
   678   496      0   1   0
   678   677      0   0   0
   678   679      0   0   0
   678   580      0   0   0
   678   664      0   0   0
   678    90      1   0   0
   678   594      0   1   0
   679    77      1   0   0
   679   497      0   1   0
   679   678      0   0   0
   679   680      0   0   0
   679   581      0   0   0
   679   665      0   0   0
   679    91      1   0   0
   679   595      0   1   0
   680    78      1   0   0
   680   498      0   1   0
   680   679      0   0   0
   680   681      0   0   0
   680   582      0   0   0
   680   666      0   0   0
   680    92      1   0   0
   680   596      0   1   0
   681    79      1   0   0
   681   499      0   1   0
   681   680      0   0   0
   681   682      0   0   0
   681   583      0   0   0
   681   667      0   0   0
   681    93      1   0   0
   681   597      0   1   0
   682    80      1   0   0
   682   500      0   1   0
   682   681      0   0   0
   682   683      0   0   0
   682   584      0   0   0
   682   668      0   0   0
   682    94      1   0   0
   682   598      0   1   0
   683    81      1   0   0
   683   501      0   1   0
   683   682      0   0   0
   683   684      0   0   0
   683   585      0   0   0
   683   669      0   0   0
   683    95      1   0   0
   683   599      0   1   0
   684    82      1   0   0
   684   502      0   1   0
   684   683      0   0   0
   684   685      0   0   0
   684   586      0   0   0
   684   670      0   0   0
   684    96      1   0   0
   684   600      0   1   0
   685    83      1   0   0
   685   503      0   1   0
   685   684      0   0   0
   685   686      0   0   0
   685   587      0   0   0
   685   671      0   0   0
   685    97      1   0   0
   685   601      0   1   0
   686    84      1   0   0
   686   504      0   1   0
   686   685      0   0   0
   686   673      0   0   1
   686   588      0   0   0
   686   672      0   0   0
   686    98      1   0   0
   686   602      0   1   0
end nnkpts

begin exclude_bands
  43
   1
   2
   3
   4
   5
   6
   7
   8
   9
  10
  11
  12
  13
  14
  15
  16
  17
  18
  19
  20
  21
  22
  23
  24
  25
  26
  27
  28
  29
  30
  31
  32
  33
  34
  35
  36
  43
  44
  45
  46
  47
  48
  49
end exclude_bands
