
             +---------------------------------------------------+
             |                                                   |
             |                   WANNIER90                       |
             |                                                   |
             +---------------------------------------------------+
             |                                                   |
             |        Welcome to the Maximally-Localized         |
             |        Generalized Wannier Functions code         |
             |            http://www.wannier.org                 |
             |                                                   |
             |                                                   |
             |  Wannier90 Developer Group:                       |
             |    Giovanni Pizzi    (EPFL)                       |
             |    Valerio Vitale    (Cambridge)                  |
             |    David Vanderbilt  (Rutgers University)         |
             |    Nicola Marzari    (EPFL)                       |
             |    Ivo Souza         (Universidad del Pais Vasco) |
             |    Arash A. Mostofi  (Imperial College London)    |
             |    Jonathan R. Yates (University of Oxford)       |
             |                                                   |
             |  For the full list of Wannier90 3.x authors,      |
             |  please check the code documentation and the      |
             |  README on the GitHub page of the code            |
             |                                                   |
             |                                                   |
             |  Please cite                                      |
             |                                                   |
             |  [ref] "Wannier90 as a community code:            |
             |        new features and applications",            |
             |        G. Pizzi et al., J. Phys. Cond. Matt. 32,  |
             |        165902 (2020).                             |
             |        http://doi.org/10.1088/1361-648X/ab51ff    |
             |                                                   |
             |  in any publications arising from the use of      |
             |  this code. For the method please cite            |
             |                                                   |
             |  [ref] "Maximally Localized Generalised Wannier   |
             |         Functions for Composite Energy Bands"     |
             |         N. Marzari and D. Vanderbilt              |
             |         Phys. Rev. B 56 12847 (1997)              |
             |                                                   |
             |  [ref] "Maximally Localized Wannier Functions     |
             |         for Entangled Energy Bands"               |
             |         I. Souza, N. Marzari and D. Vanderbilt    |
             |         Phys. Rev. B 65 035109 (2001)             |
             |                                                   |
             |                                                   |
             | Copyright (c) 1996-2020                           |
             |        The Wannier90 Developer Group and          |
             |        individual contributors                    |
             |                                                   |
             |      Release: 3.1.0        5th March    2020      |
             |                                                   |
             | This program is free software; you can            |
             | redistribute it and/or modify it under the terms  |
             | of the GNU General Public License as published by |
             | the Free Software Foundation; either version 2 of |
             | the License, or (at your option) any later version|
             |                                                   |
             | This program is distributed in the hope that it   |
             | will be useful, but WITHOUT ANY WARRANTY; without |
             | even the implied warranty of MERCHANTABILITY or   |
             | FITNESS FOR A PARTICULAR PURPOSE. See the GNU     |
             | General Public License for more details.          |
             |                                                   |
             | You should have received a copy of the GNU General|
             | Public License along with this program; if not,   |
             | write to the Free Software Foundation, Inc.,      |
             | 675 Mass Ave, Cambridge, MA 02139, USA.           |
             |                                                   |
             +---------------------------------------------------+
             |    Execution started on 24Apr2023 at 10:35:31     |
             +---------------------------------------------------+
 
 ******************************************************************************
 * -> Using CODATA 2006 constant values                                       *
 *    (http://physics.nist.gov/cuu/Constants/index.html)                      *
 * -> Using Bohr value from CODATA                                            *
 ******************************************************************************
 

 Running in serial (with serial executable)

                                    ------
                                    SYSTEM
                                    ------

                              Lattice Vectors (Ang)
                    a_1     1.762070  -7.996107   0.000000
                    a_2     1.762070   7.996107   0.000000
                    a_3     0.000000   0.000000   3.939405

                   Unit Cell Volume:     111.01006  (Ang^3)

                        Reciprocal-Space Vectors (Ang^-1)
                    b_1     1.782899  -0.392890   0.000000
                    b_2     1.782899   0.392890  -0.000000
                    b_3    -0.000000   0.000000   1.594958
  
 *----------------------------------------------------------------------------*
 |   Site       Fractional Coordinate          Cartesian Coordinate (Ang)     |
 +----------------------------------------------------------------------------+
 | Sr   1  -0.33015   1.33015   0.25000   |    1.76207  13.27593   0.98485    |
 | Ca   1  -0.66837   0.66837   0.75000   |    0.00000  10.68867   2.95455    |
 | Cu   1  -0.06319   1.06319   0.25000   |    1.76207   9.00659   0.98485    |
 | Cu   2  -0.93780   0.93780   0.75000   |   -0.00000  14.99746   2.95455    |
 | O    1  -0.05929   1.05929   0.75000   |    1.76207   8.94436   2.95455    |
 | O    2  -0.94507   0.94507   0.25000   |    0.00000  15.11376   0.98485    |
 | O    3  -0.17998   1.17998   0.25000   |    1.76207  10.87434   0.98485    |
 | O    4  -0.81616   0.81616   0.75000   |   -0.00000  13.05216   2.95455    |
 *----------------------------------------------------------------------------*
                                -----------
                                PROJECTIONS
                                -----------
  
 +----------------------------------------------------------------------------+
 |     Frac. Coord.   l mr  r        z-axis               x-axis          Z/a |
 +----------------------------------------------------------------------------+
 | -0.06  1.06  0.25  2  4  1  0.000  0.000  1.000  1.000  0.000  0.000   1.0 |
 | -0.94  0.94  0.75  2  4  1  0.000  0.000  1.000  1.000  0.000  0.000   1.0 |
 +----------------------------------------------------------------------------+
  
                                ------------
                                K-POINT GRID
                                ------------
  
             Grid size =  7 x  7 x 14      Total points =  686
  
 *----------------------------------------------------------------------------*
 | k-point      Fractional Coordinate        Cartesian Coordinate (Ang^-1)    |
 +----------------------------------------------------------------------------+
 |     1    0.00000   0.00000   0.00000   |    0.00000   0.00000   0.00000    |
 |     2    0.00000   0.00000   0.07143   |    0.00000   0.00000   0.11393    |
 |     3    0.00000   0.00000   0.14286   |    0.00000   0.00000   0.22785    |
 |     4    0.00000   0.00000   0.21429   |    0.00000   0.00000   0.34178    |
 |     5    0.00000   0.00000   0.28571   |    0.00000   0.00000   0.45570    |
 |     6    0.00000   0.00000   0.35714   |    0.00000   0.00000   0.56963    |
 |     7    0.00000   0.00000   0.42857   |    0.00000   0.00000   0.68355    |
 |     8    0.00000   0.00000   0.50000   |    0.00000   0.00000   0.79748    |
 |     9    0.00000   0.00000   0.57143   |    0.00000   0.00000   0.91140    |
 |    10    0.00000   0.00000   0.64286   |    0.00000   0.00000   1.02533    |
 |    11    0.00000   0.00000   0.71429   |    0.00000   0.00000   1.13926    |
 |    12    0.00000   0.00000   0.78571   |    0.00000   0.00000   1.25318    |
 |    13    0.00000   0.00000   0.85714   |    0.00000   0.00000   1.36711    |
 |    14    0.00000   0.00000   0.92857   |    0.00000   0.00000   1.48103    |
 |    15    0.00000   0.14286   0.00000   |    0.25470   0.05613   0.00000    |
 |    16    0.00000   0.14286   0.07143   |    0.25470   0.05613   0.11393    |
 |    17    0.00000   0.14286   0.14286   |    0.25470   0.05613   0.22785    |
 |    18    0.00000   0.14286   0.21429   |    0.25470   0.05613   0.34178    |
 |    19    0.00000   0.14286   0.28571   |    0.25470   0.05613   0.45570    |
 |    20    0.00000   0.14286   0.35714   |    0.25470   0.05613   0.56963    |
 |    21    0.00000   0.14286   0.42857   |    0.25470   0.05613   0.68355    |
 |    22    0.00000   0.14286   0.50000   |    0.25470   0.05613   0.79748    |
 |    23    0.00000   0.14286   0.57143   |    0.25470   0.05613   0.91140    |
 |    24    0.00000   0.14286   0.64286   |    0.25470   0.05613   1.02533    |
 |    25    0.00000   0.14286   0.71429   |    0.25470   0.05613   1.13926    |
 |    26    0.00000   0.14286   0.78571   |    0.25470   0.05613   1.25318    |
 |    27    0.00000   0.14286   0.85714   |    0.25470   0.05613   1.36711    |
 |    28    0.00000   0.14286   0.92857   |    0.25470   0.05613   1.48103    |
 |    29    0.00000   0.28571   0.00000   |    0.50940   0.11225   0.00000    |
 |    30    0.00000   0.28571   0.07143   |    0.50940   0.11225   0.11393    |
 |    31    0.00000   0.28571   0.14286   |    0.50940   0.11225   0.22785    |
 |    32    0.00000   0.28571   0.21429   |    0.50940   0.11225   0.34178    |
 |    33    0.00000   0.28571   0.28571   |    0.50940   0.11225   0.45570    |
 |    34    0.00000   0.28571   0.35714   |    0.50940   0.11225   0.56963    |
 |    35    0.00000   0.28571   0.42857   |    0.50940   0.11225   0.68355    |
 |    36    0.00000   0.28571   0.50000   |    0.50940   0.11225   0.79748    |
 |    37    0.00000   0.28571   0.57143   |    0.50940   0.11225   0.91140    |
 |    38    0.00000   0.28571   0.64286   |    0.50940   0.11225   1.02533    |
 |    39    0.00000   0.28571   0.71429   |    0.50940   0.11225   1.13926    |
 |    40    0.00000   0.28571   0.78571   |    0.50940   0.11225   1.25318    |
 |    41    0.00000   0.28571   0.85714   |    0.50940   0.11225   1.36711    |
 |    42    0.00000   0.28571   0.92857   |    0.50940   0.11225   1.48103    |
 |    43    0.00000   0.42857   0.00000   |    0.76410   0.16838   0.00000    |
 |    44    0.00000   0.42857   0.07143   |    0.76410   0.16838   0.11393    |
 |    45    0.00000   0.42857   0.14286   |    0.76410   0.16838   0.22785    |
 |    46    0.00000   0.42857   0.21429   |    0.76410   0.16838   0.34178    |
 |    47    0.00000   0.42857   0.28571   |    0.76410   0.16838   0.45570    |
 |    48    0.00000   0.42857   0.35714   |    0.76410   0.16838   0.56963    |
 |    49    0.00000   0.42857   0.42857   |    0.76410   0.16838   0.68355    |
 |    50    0.00000   0.42857   0.50000   |    0.76410   0.16838   0.79748    |
 |    51    0.00000   0.42857   0.57143   |    0.76410   0.16838   0.91140    |
 |    52    0.00000   0.42857   0.64286   |    0.76410   0.16838   1.02533    |
 |    53    0.00000   0.42857   0.71429   |    0.76410   0.16838   1.13926    |
 |    54    0.00000   0.42857   0.78571   |    0.76410   0.16838   1.25318    |
 |    55    0.00000   0.42857   0.85714   |    0.76410   0.16838   1.36711    |
 |    56    0.00000   0.42857   0.92857   |    0.76410   0.16838   1.48103    |
 |    57    0.00000   0.57143   0.00000   |    1.01880   0.22451   0.00000    |
 |    58    0.00000   0.57143   0.07143   |    1.01880   0.22451   0.11393    |
 |    59    0.00000   0.57143   0.14286   |    1.01880   0.22451   0.22785    |
 |    60    0.00000   0.57143   0.21429   |    1.01880   0.22451   0.34178    |
 |    61    0.00000   0.57143   0.28571   |    1.01880   0.22451   0.45570    |
 |    62    0.00000   0.57143   0.35714   |    1.01880   0.22451   0.56963    |
 |    63    0.00000   0.57143   0.42857   |    1.01880   0.22451   0.68355    |
 |    64    0.00000   0.57143   0.50000   |    1.01880   0.22451   0.79748    |
 |    65    0.00000   0.57143   0.57143   |    1.01880   0.22451   0.91140    |
 |    66    0.00000   0.57143   0.64286   |    1.01880   0.22451   1.02533    |
 |    67    0.00000   0.57143   0.71429   |    1.01880   0.22451   1.13926    |
 |    68    0.00000   0.57143   0.78571   |    1.01880   0.22451   1.25318    |
 |    69    0.00000   0.57143   0.85714   |    1.01880   0.22451   1.36711    |
 |    70    0.00000   0.57143   0.92857   |    1.01880   0.22451   1.48103    |
 |    71    0.00000   0.71429   0.00000   |    1.27350   0.28064   0.00000    |
 |    72    0.00000   0.71429   0.07143   |    1.27350   0.28064   0.11393    |
 |    73    0.00000   0.71429   0.14286   |    1.27350   0.28064   0.22785    |
 |    74    0.00000   0.71429   0.21429   |    1.27350   0.28064   0.34178    |
 |    75    0.00000   0.71429   0.28571   |    1.27350   0.28064   0.45570    |
 |    76    0.00000   0.71429   0.35714   |    1.27350   0.28064   0.56963    |
 |    77    0.00000   0.71429   0.42857   |    1.27350   0.28064   0.68355    |
 |    78    0.00000   0.71429   0.50000   |    1.27350   0.28064   0.79748    |
 |    79    0.00000   0.71429   0.57143   |    1.27350   0.28064   0.91140    |
 |    80    0.00000   0.71429   0.64286   |    1.27350   0.28064   1.02533    |
 |    81    0.00000   0.71429   0.71429   |    1.27350   0.28064   1.13926    |
 |    82    0.00000   0.71429   0.78571   |    1.27350   0.28064   1.25318    |
 |    83    0.00000   0.71429   0.85714   |    1.27350   0.28064   1.36711    |
 |    84    0.00000   0.71429   0.92857   |    1.27350   0.28064   1.48103    |
 |    85    0.00000   0.85714   0.00000   |    1.52820   0.33676   0.00000    |
 |    86    0.00000   0.85714   0.07143   |    1.52820   0.33676   0.11393    |
 |    87    0.00000   0.85714   0.14286   |    1.52820   0.33676   0.22785    |
 |    88    0.00000   0.85714   0.21429   |    1.52820   0.33676   0.34178    |
 |    89    0.00000   0.85714   0.28571   |    1.52820   0.33676   0.45570    |
 |    90    0.00000   0.85714   0.35714   |    1.52820   0.33676   0.56963    |
 |    91    0.00000   0.85714   0.42857   |    1.52820   0.33676   0.68355    |
 |    92    0.00000   0.85714   0.50000   |    1.52820   0.33676   0.79748    |
 |    93    0.00000   0.85714   0.57143   |    1.52820   0.33676   0.91140    |
 |    94    0.00000   0.85714   0.64286   |    1.52820   0.33676   1.02533    |
 |    95    0.00000   0.85714   0.71429   |    1.52820   0.33676   1.13926    |
 |    96    0.00000   0.85714   0.78571   |    1.52820   0.33676   1.25318    |
 |    97    0.00000   0.85714   0.85714   |    1.52820   0.33676   1.36711    |
 |    98    0.00000   0.85714   0.92857   |    1.52820   0.33676   1.48103    |
 |    99    0.14286   0.00000   0.00000   |    0.25470  -0.05613   0.00000    |
 |   100    0.14286   0.00000   0.07143   |    0.25470  -0.05613   0.11393    |
 |   101    0.14286   0.00000   0.14286   |    0.25470  -0.05613   0.22785    |
 |   102    0.14286   0.00000   0.21429   |    0.25470  -0.05613   0.34178    |
 |   103    0.14286   0.00000   0.28571   |    0.25470  -0.05613   0.45570    |
 |   104    0.14286   0.00000   0.35714   |    0.25470  -0.05613   0.56963    |
 |   105    0.14286   0.00000   0.42857   |    0.25470  -0.05613   0.68355    |
 |   106    0.14286   0.00000   0.50000   |    0.25470  -0.05613   0.79748    |
 |   107    0.14286   0.00000   0.57143   |    0.25470  -0.05613   0.91140    |
 |   108    0.14286   0.00000   0.64286   |    0.25470  -0.05613   1.02533    |
 |   109    0.14286   0.00000   0.71429   |    0.25470  -0.05613   1.13926    |
 |   110    0.14286   0.00000   0.78571   |    0.25470  -0.05613   1.25318    |
 |   111    0.14286   0.00000   0.85714   |    0.25470  -0.05613   1.36711    |
 |   112    0.14286   0.00000   0.92857   |    0.25470  -0.05613   1.48103    |
 |   113    0.14286   0.14286   0.00000   |    0.50940  -0.00000   0.00000    |
 |   114    0.14286   0.14286   0.07143   |    0.50940  -0.00000   0.11393    |
 |   115    0.14286   0.14286   0.14286   |    0.50940  -0.00000   0.22785    |
 |   116    0.14286   0.14286   0.21429   |    0.50940  -0.00000   0.34178    |
 |   117    0.14286   0.14286   0.28571   |    0.50940  -0.00000   0.45570    |
 |   118    0.14286   0.14286   0.35714   |    0.50940  -0.00000   0.56963    |
 |   119    0.14286   0.14286   0.42857   |    0.50940  -0.00000   0.68355    |
 |   120    0.14286   0.14286   0.50000   |    0.50940  -0.00000   0.79748    |
 |   121    0.14286   0.14286   0.57143   |    0.50940  -0.00000   0.91140    |
 |   122    0.14286   0.14286   0.64286   |    0.50940  -0.00000   1.02533    |
 |   123    0.14286   0.14286   0.71429   |    0.50940  -0.00000   1.13926    |
 |   124    0.14286   0.14286   0.78571   |    0.50940  -0.00000   1.25318    |
 |   125    0.14286   0.14286   0.85714   |    0.50940  -0.00000   1.36711    |
 |   126    0.14286   0.14286   0.92857   |    0.50940  -0.00000   1.48103    |
 |   127    0.14286   0.28571   0.00000   |    0.76410   0.05613   0.00000    |
 |   128    0.14286   0.28571   0.07143   |    0.76410   0.05613   0.11393    |
 |   129    0.14286   0.28571   0.14286   |    0.76410   0.05613   0.22785    |
 |   130    0.14286   0.28571   0.21429   |    0.76410   0.05613   0.34178    |
 |   131    0.14286   0.28571   0.28571   |    0.76410   0.05613   0.45570    |
 |   132    0.14286   0.28571   0.35714   |    0.76410   0.05613   0.56963    |
 |   133    0.14286   0.28571   0.42857   |    0.76410   0.05613   0.68355    |
 |   134    0.14286   0.28571   0.50000   |    0.76410   0.05613   0.79748    |
 |   135    0.14286   0.28571   0.57143   |    0.76410   0.05613   0.91140    |
 |   136    0.14286   0.28571   0.64286   |    0.76410   0.05613   1.02533    |
 |   137    0.14286   0.28571   0.71429   |    0.76410   0.05613   1.13926    |
 |   138    0.14286   0.28571   0.78571   |    0.76410   0.05613   1.25318    |
 |   139    0.14286   0.28571   0.85714   |    0.76410   0.05613   1.36711    |
 |   140    0.14286   0.28571   0.92857   |    0.76410   0.05613   1.48103    |
 |   141    0.14286   0.42857   0.00000   |    1.01880   0.11225   0.00000    |
 |   142    0.14286   0.42857   0.07143   |    1.01880   0.11225   0.11393    |
 |   143    0.14286   0.42857   0.14286   |    1.01880   0.11225   0.22785    |
 |   144    0.14286   0.42857   0.21429   |    1.01880   0.11225   0.34178    |
 |   145    0.14286   0.42857   0.28571   |    1.01880   0.11225   0.45570    |
 |   146    0.14286   0.42857   0.35714   |    1.01880   0.11225   0.56963    |
 |   147    0.14286   0.42857   0.42857   |    1.01880   0.11225   0.68355    |
 |   148    0.14286   0.42857   0.50000   |    1.01880   0.11225   0.79748    |
 |   149    0.14286   0.42857   0.57143   |    1.01880   0.11225   0.91140    |
 |   150    0.14286   0.42857   0.64286   |    1.01880   0.11225   1.02533    |
 |   151    0.14286   0.42857   0.71429   |    1.01880   0.11225   1.13926    |
 |   152    0.14286   0.42857   0.78571   |    1.01880   0.11225   1.25318    |
 |   153    0.14286   0.42857   0.85714   |    1.01880   0.11225   1.36711    |
 |   154    0.14286   0.42857   0.92857   |    1.01880   0.11225   1.48103    |
 |   155    0.14286   0.57143   0.00000   |    1.27350   0.16838   0.00000    |
 |   156    0.14286   0.57143   0.07143   |    1.27350   0.16838   0.11393    |
 |   157    0.14286   0.57143   0.14286   |    1.27350   0.16838   0.22785    |
 |   158    0.14286   0.57143   0.21429   |    1.27350   0.16838   0.34178    |
 |   159    0.14286   0.57143   0.28571   |    1.27350   0.16838   0.45570    |
 |   160    0.14286   0.57143   0.35714   |    1.27350   0.16838   0.56963    |
 |   161    0.14286   0.57143   0.42857   |    1.27350   0.16838   0.68355    |
 |   162    0.14286   0.57143   0.50000   |    1.27350   0.16838   0.79748    |
 |   163    0.14286   0.57143   0.57143   |    1.27350   0.16838   0.91140    |
 |   164    0.14286   0.57143   0.64286   |    1.27350   0.16838   1.02533    |
 |   165    0.14286   0.57143   0.71429   |    1.27350   0.16838   1.13926    |
 |   166    0.14286   0.57143   0.78571   |    1.27350   0.16838   1.25318    |
 |   167    0.14286   0.57143   0.85714   |    1.27350   0.16838   1.36711    |
 |   168    0.14286   0.57143   0.92857   |    1.27350   0.16838   1.48103    |
 |   169    0.14286   0.71429   0.00000   |    1.52820   0.22451   0.00000    |
 |   170    0.14286   0.71429   0.07143   |    1.52820   0.22451   0.11393    |
 |   171    0.14286   0.71429   0.14286   |    1.52820   0.22451   0.22785    |
 |   172    0.14286   0.71429   0.21429   |    1.52820   0.22451   0.34178    |
 |   173    0.14286   0.71429   0.28571   |    1.52820   0.22451   0.45570    |
 |   174    0.14286   0.71429   0.35714   |    1.52820   0.22451   0.56963    |
 |   175    0.14286   0.71429   0.42857   |    1.52820   0.22451   0.68355    |
 |   176    0.14286   0.71429   0.50000   |    1.52820   0.22451   0.79748    |
 |   177    0.14286   0.71429   0.57143   |    1.52820   0.22451   0.91140    |
 |   178    0.14286   0.71429   0.64286   |    1.52820   0.22451   1.02533    |
 |   179    0.14286   0.71429   0.71429   |    1.52820   0.22451   1.13926    |
 |   180    0.14286   0.71429   0.78571   |    1.52820   0.22451   1.25318    |
 |   181    0.14286   0.71429   0.85714   |    1.52820   0.22451   1.36711    |
 |   182    0.14286   0.71429   0.92857   |    1.52820   0.22451   1.48103    |
 |   183    0.14286   0.85714   0.00000   |    1.78290   0.28064   0.00000    |
 |   184    0.14286   0.85714   0.07143   |    1.78290   0.28064   0.11393    |
 |   185    0.14286   0.85714   0.14286   |    1.78290   0.28064   0.22785    |
 |   186    0.14286   0.85714   0.21429   |    1.78290   0.28064   0.34178    |
 |   187    0.14286   0.85714   0.28571   |    1.78290   0.28064   0.45570    |
 |   188    0.14286   0.85714   0.35714   |    1.78290   0.28064   0.56963    |
 |   189    0.14286   0.85714   0.42857   |    1.78290   0.28064   0.68355    |
 |   190    0.14286   0.85714   0.50000   |    1.78290   0.28064   0.79748    |
 |   191    0.14286   0.85714   0.57143   |    1.78290   0.28064   0.91140    |
 |   192    0.14286   0.85714   0.64286   |    1.78290   0.28064   1.02533    |
 |   193    0.14286   0.85714   0.71429   |    1.78290   0.28064   1.13926    |
 |   194    0.14286   0.85714   0.78571   |    1.78290   0.28064   1.25318    |
 |   195    0.14286   0.85714   0.85714   |    1.78290   0.28064   1.36711    |
 |   196    0.14286   0.85714   0.92857   |    1.78290   0.28064   1.48103    |
 |   197    0.28571   0.00000   0.00000   |    0.50940  -0.11225   0.00000    |
 |   198    0.28571   0.00000   0.07143   |    0.50940  -0.11225   0.11393    |
 |   199    0.28571   0.00000   0.14286   |    0.50940  -0.11225   0.22785    |
 |   200    0.28571   0.00000   0.21429   |    0.50940  -0.11225   0.34178    |
 |   201    0.28571   0.00000   0.28571   |    0.50940  -0.11225   0.45570    |
 |   202    0.28571   0.00000   0.35714   |    0.50940  -0.11225   0.56963    |
 |   203    0.28571   0.00000   0.42857   |    0.50940  -0.11225   0.68355    |
 |   204    0.28571   0.00000   0.50000   |    0.50940  -0.11225   0.79748    |
 |   205    0.28571   0.00000   0.57143   |    0.50940  -0.11225   0.91140    |
 |   206    0.28571   0.00000   0.64286   |    0.50940  -0.11225   1.02533    |
 |   207    0.28571   0.00000   0.71429   |    0.50940  -0.11225   1.13926    |
 |   208    0.28571   0.00000   0.78571   |    0.50940  -0.11225   1.25318    |
 |   209    0.28571   0.00000   0.85714   |    0.50940  -0.11225   1.36711    |
 |   210    0.28571   0.00000   0.92857   |    0.50940  -0.11225   1.48103    |
 |   211    0.28571   0.14286   0.00000   |    0.76410  -0.05613   0.00000    |
 |   212    0.28571   0.14286   0.07143   |    0.76410  -0.05613   0.11393    |
 |   213    0.28571   0.14286   0.14286   |    0.76410  -0.05613   0.22785    |
 |   214    0.28571   0.14286   0.21429   |    0.76410  -0.05613   0.34178    |
 |   215    0.28571   0.14286   0.28571   |    0.76410  -0.05613   0.45570    |
 |   216    0.28571   0.14286   0.35714   |    0.76410  -0.05613   0.56963    |
 |   217    0.28571   0.14286   0.42857   |    0.76410  -0.05613   0.68355    |
 |   218    0.28571   0.14286   0.50000   |    0.76410  -0.05613   0.79748    |
 |   219    0.28571   0.14286   0.57143   |    0.76410  -0.05613   0.91140    |
 |   220    0.28571   0.14286   0.64286   |    0.76410  -0.05613   1.02533    |
 |   221    0.28571   0.14286   0.71429   |    0.76410  -0.05613   1.13926    |
 |   222    0.28571   0.14286   0.78571   |    0.76410  -0.05613   1.25318    |
 |   223    0.28571   0.14286   0.85714   |    0.76410  -0.05613   1.36711    |
 |   224    0.28571   0.14286   0.92857   |    0.76410  -0.05613   1.48103    |
 |   225    0.28571   0.28571   0.00000   |    1.01880   0.00000   0.00000    |
 |   226    0.28571   0.28571   0.07143   |    1.01880   0.00000   0.11393    |
 |   227    0.28571   0.28571   0.14286   |    1.01880   0.00000   0.22785    |
 |   228    0.28571   0.28571   0.21429   |    1.01880   0.00000   0.34178    |
 |   229    0.28571   0.28571   0.28571   |    1.01880   0.00000   0.45570    |
 |   230    0.28571   0.28571   0.35714   |    1.01880   0.00000   0.56963    |
 |   231    0.28571   0.28571   0.42857   |    1.01880   0.00000   0.68355    |
 |   232    0.28571   0.28571   0.50000   |    1.01880   0.00000   0.79748    |
 |   233    0.28571   0.28571   0.57143   |    1.01880   0.00000   0.91140    |
 |   234    0.28571   0.28571   0.64286   |    1.01880   0.00000   1.02533    |
 |   235    0.28571   0.28571   0.71429   |    1.01880   0.00000   1.13926    |
 |   236    0.28571   0.28571   0.78571   |    1.01880   0.00000   1.25318    |
 |   237    0.28571   0.28571   0.85714   |    1.01880   0.00000   1.36711    |
 |   238    0.28571   0.28571   0.92857   |    1.01880   0.00000   1.48103    |
 |   239    0.28571   0.42857   0.00000   |    1.27350   0.05613   0.00000    |
 |   240    0.28571   0.42857   0.07143   |    1.27350   0.05613   0.11393    |
 |   241    0.28571   0.42857   0.14286   |    1.27350   0.05613   0.22785    |
 |   242    0.28571   0.42857   0.21429   |    1.27350   0.05613   0.34178    |
 |   243    0.28571   0.42857   0.28571   |    1.27350   0.05613   0.45570    |
 |   244    0.28571   0.42857   0.35714   |    1.27350   0.05613   0.56963    |
 |   245    0.28571   0.42857   0.42857   |    1.27350   0.05613   0.68355    |
 |   246    0.28571   0.42857   0.50000   |    1.27350   0.05613   0.79748    |
 |   247    0.28571   0.42857   0.57143   |    1.27350   0.05613   0.91140    |
 |   248    0.28571   0.42857   0.64286   |    1.27350   0.05613   1.02533    |
 |   249    0.28571   0.42857   0.71429   |    1.27350   0.05613   1.13926    |
 |   250    0.28571   0.42857   0.78571   |    1.27350   0.05613   1.25318    |
 |   251    0.28571   0.42857   0.85714   |    1.27350   0.05613   1.36711    |
 |   252    0.28571   0.42857   0.92857   |    1.27350   0.05613   1.48103    |
 |   253    0.28571   0.57143   0.00000   |    1.52820   0.11225   0.00000    |
 |   254    0.28571   0.57143   0.07143   |    1.52820   0.11225   0.11393    |
 |   255    0.28571   0.57143   0.14286   |    1.52820   0.11225   0.22785    |
 |   256    0.28571   0.57143   0.21429   |    1.52820   0.11225   0.34178    |
 |   257    0.28571   0.57143   0.28571   |    1.52820   0.11225   0.45570    |
 |   258    0.28571   0.57143   0.35714   |    1.52820   0.11225   0.56963    |
 |   259    0.28571   0.57143   0.42857   |    1.52820   0.11225   0.68355    |
 |   260    0.28571   0.57143   0.50000   |    1.52820   0.11225   0.79748    |
 |   261    0.28571   0.57143   0.57143   |    1.52820   0.11225   0.91140    |
 |   262    0.28571   0.57143   0.64286   |    1.52820   0.11225   1.02533    |
 |   263    0.28571   0.57143   0.71429   |    1.52820   0.11225   1.13926    |
 |   264    0.28571   0.57143   0.78571   |    1.52820   0.11225   1.25318    |
 |   265    0.28571   0.57143   0.85714   |    1.52820   0.11225   1.36711    |
 |   266    0.28571   0.57143   0.92857   |    1.52820   0.11225   1.48103    |
 |   267    0.28571   0.71429   0.00000   |    1.78290   0.16838   0.00000    |
 |   268    0.28571   0.71429   0.07143   |    1.78290   0.16838   0.11393    |
 |   269    0.28571   0.71429   0.14286   |    1.78290   0.16838   0.22785    |
 |   270    0.28571   0.71429   0.21429   |    1.78290   0.16838   0.34178    |
 |   271    0.28571   0.71429   0.28571   |    1.78290   0.16838   0.45570    |
 |   272    0.28571   0.71429   0.35714   |    1.78290   0.16838   0.56963    |
 |   273    0.28571   0.71429   0.42857   |    1.78290   0.16838   0.68355    |
 |   274    0.28571   0.71429   0.50000   |    1.78290   0.16838   0.79748    |
 |   275    0.28571   0.71429   0.57143   |    1.78290   0.16838   0.91140    |
 |   276    0.28571   0.71429   0.64286   |    1.78290   0.16838   1.02533    |
 |   277    0.28571   0.71429   0.71429   |    1.78290   0.16838   1.13926    |
 |   278    0.28571   0.71429   0.78571   |    1.78290   0.16838   1.25318    |
 |   279    0.28571   0.71429   0.85714   |    1.78290   0.16838   1.36711    |
 |   280    0.28571   0.71429   0.92857   |    1.78290   0.16838   1.48103    |
 |   281    0.28571   0.85714   0.00000   |    2.03760   0.22451   0.00000    |
 |   282    0.28571   0.85714   0.07143   |    2.03760   0.22451   0.11393    |
 |   283    0.28571   0.85714   0.14286   |    2.03760   0.22451   0.22785    |
 |   284    0.28571   0.85714   0.21429   |    2.03760   0.22451   0.34178    |
 |   285    0.28571   0.85714   0.28571   |    2.03760   0.22451   0.45570    |
 |   286    0.28571   0.85714   0.35714   |    2.03760   0.22451   0.56963    |
 |   287    0.28571   0.85714   0.42857   |    2.03760   0.22451   0.68355    |
 |   288    0.28571   0.85714   0.50000   |    2.03760   0.22451   0.79748    |
 |   289    0.28571   0.85714   0.57143   |    2.03760   0.22451   0.91140    |
 |   290    0.28571   0.85714   0.64286   |    2.03760   0.22451   1.02533    |
 |   291    0.28571   0.85714   0.71429   |    2.03760   0.22451   1.13926    |
 |   292    0.28571   0.85714   0.78571   |    2.03760   0.22451   1.25318    |
 |   293    0.28571   0.85714   0.85714   |    2.03760   0.22451   1.36711    |
 |   294    0.28571   0.85714   0.92857   |    2.03760   0.22451   1.48103    |
 |   295    0.42857   0.00000   0.00000   |    0.76410  -0.16838   0.00000    |
 |   296    0.42857   0.00000   0.07143   |    0.76410  -0.16838   0.11393    |
 |   297    0.42857   0.00000   0.14286   |    0.76410  -0.16838   0.22785    |
 |   298    0.42857   0.00000   0.21429   |    0.76410  -0.16838   0.34178    |
 |   299    0.42857   0.00000   0.28571   |    0.76410  -0.16838   0.45570    |
 |   300    0.42857   0.00000   0.35714   |    0.76410  -0.16838   0.56963    |
 |   301    0.42857   0.00000   0.42857   |    0.76410  -0.16838   0.68355    |
 |   302    0.42857   0.00000   0.50000   |    0.76410  -0.16838   0.79748    |
 |   303    0.42857   0.00000   0.57143   |    0.76410  -0.16838   0.91140    |
 |   304    0.42857   0.00000   0.64286   |    0.76410  -0.16838   1.02533    |
 |   305    0.42857   0.00000   0.71429   |    0.76410  -0.16838   1.13926    |
 |   306    0.42857   0.00000   0.78571   |    0.76410  -0.16838   1.25318    |
 |   307    0.42857   0.00000   0.85714   |    0.76410  -0.16838   1.36711    |
 |   308    0.42857   0.00000   0.92857   |    0.76410  -0.16838   1.48103    |
 |   309    0.42857   0.14286   0.00000   |    1.01880  -0.11225   0.00000    |
 |   310    0.42857   0.14286   0.07143   |    1.01880  -0.11225   0.11393    |
 |   311    0.42857   0.14286   0.14286   |    1.01880  -0.11225   0.22785    |
 |   312    0.42857   0.14286   0.21429   |    1.01880  -0.11225   0.34178    |
 |   313    0.42857   0.14286   0.28571   |    1.01880  -0.11225   0.45570    |
 |   314    0.42857   0.14286   0.35714   |    1.01880  -0.11225   0.56963    |
 |   315    0.42857   0.14286   0.42857   |    1.01880  -0.11225   0.68355    |
 |   316    0.42857   0.14286   0.50000   |    1.01880  -0.11225   0.79748    |
 |   317    0.42857   0.14286   0.57143   |    1.01880  -0.11225   0.91140    |
 |   318    0.42857   0.14286   0.64286   |    1.01880  -0.11225   1.02533    |
 |   319    0.42857   0.14286   0.71429   |    1.01880  -0.11225   1.13926    |
 |   320    0.42857   0.14286   0.78571   |    1.01880  -0.11225   1.25318    |
 |   321    0.42857   0.14286   0.85714   |    1.01880  -0.11225   1.36711    |
 |   322    0.42857   0.14286   0.92857   |    1.01880  -0.11225   1.48103    |
 |   323    0.42857   0.28571   0.00000   |    1.27350  -0.05613   0.00000    |
 |   324    0.42857   0.28571   0.07143   |    1.27350  -0.05613   0.11393    |
 |   325    0.42857   0.28571   0.14286   |    1.27350  -0.05613   0.22785    |
 |   326    0.42857   0.28571   0.21429   |    1.27350  -0.05613   0.34178    |
 |   327    0.42857   0.28571   0.28571   |    1.27350  -0.05613   0.45570    |
 |   328    0.42857   0.28571   0.35714   |    1.27350  -0.05613   0.56963    |
 |   329    0.42857   0.28571   0.42857   |    1.27350  -0.05613   0.68355    |
 |   330    0.42857   0.28571   0.50000   |    1.27350  -0.05613   0.79748    |
 |   331    0.42857   0.28571   0.57143   |    1.27350  -0.05613   0.91140    |
 |   332    0.42857   0.28571   0.64286   |    1.27350  -0.05613   1.02533    |
 |   333    0.42857   0.28571   0.71429   |    1.27350  -0.05613   1.13926    |
 |   334    0.42857   0.28571   0.78571   |    1.27350  -0.05613   1.25318    |
 |   335    0.42857   0.28571   0.85714   |    1.27350  -0.05613   1.36711    |
 |   336    0.42857   0.28571   0.92857   |    1.27350  -0.05613   1.48103    |
 |   337    0.42857   0.42857   0.00000   |    1.52820  -0.00000   0.00000    |
 |   338    0.42857   0.42857   0.07143   |    1.52820  -0.00000   0.11393    |
 |   339    0.42857   0.42857   0.14286   |    1.52820  -0.00000   0.22785    |
 |   340    0.42857   0.42857   0.21429   |    1.52820  -0.00000   0.34178    |
 |   341    0.42857   0.42857   0.28571   |    1.52820  -0.00000   0.45570    |
 |   342    0.42857   0.42857   0.35714   |    1.52820  -0.00000   0.56963    |
 |   343    0.42857   0.42857   0.42857   |    1.52820  -0.00000   0.68355    |
 |   344    0.42857   0.42857   0.50000   |    1.52820  -0.00000   0.79748    |
 |   345    0.42857   0.42857   0.57143   |    1.52820  -0.00000   0.91140    |
 |   346    0.42857   0.42857   0.64286   |    1.52820  -0.00000   1.02533    |
 |   347    0.42857   0.42857   0.71429   |    1.52820  -0.00000   1.13926    |
 |   348    0.42857   0.42857   0.78571   |    1.52820  -0.00000   1.25318    |
 |   349    0.42857   0.42857   0.85714   |    1.52820  -0.00000   1.36711    |
 |   350    0.42857   0.42857   0.92857   |    1.52820  -0.00000   1.48103    |
 |   351    0.42857   0.57143   0.00000   |    1.78290   0.05613   0.00000    |
 |   352    0.42857   0.57143   0.07143   |    1.78290   0.05613   0.11393    |
 |   353    0.42857   0.57143   0.14286   |    1.78290   0.05613   0.22785    |
 |   354    0.42857   0.57143   0.21429   |    1.78290   0.05613   0.34178    |
 |   355    0.42857   0.57143   0.28571   |    1.78290   0.05613   0.45570    |
 |   356    0.42857   0.57143   0.35714   |    1.78290   0.05613   0.56963    |
 |   357    0.42857   0.57143   0.42857   |    1.78290   0.05613   0.68355    |
 |   358    0.42857   0.57143   0.50000   |    1.78290   0.05613   0.79748    |
 |   359    0.42857   0.57143   0.57143   |    1.78290   0.05613   0.91140    |
 |   360    0.42857   0.57143   0.64286   |    1.78290   0.05613   1.02533    |
 |   361    0.42857   0.57143   0.71429   |    1.78290   0.05613   1.13926    |
 |   362    0.42857   0.57143   0.78571   |    1.78290   0.05613   1.25318    |
 |   363    0.42857   0.57143   0.85714   |    1.78290   0.05613   1.36711    |
 |   364    0.42857   0.57143   0.92857   |    1.78290   0.05613   1.48103    |
 |   365    0.42857   0.71429   0.00000   |    2.03760   0.11225   0.00000    |
 |   366    0.42857   0.71429   0.07143   |    2.03760   0.11225   0.11393    |
 |   367    0.42857   0.71429   0.14286   |    2.03760   0.11225   0.22785    |
 |   368    0.42857   0.71429   0.21429   |    2.03760   0.11225   0.34178    |
 |   369    0.42857   0.71429   0.28571   |    2.03760   0.11225   0.45570    |
 |   370    0.42857   0.71429   0.35714   |    2.03760   0.11225   0.56963    |
 |   371    0.42857   0.71429   0.42857   |    2.03760   0.11225   0.68355    |
 |   372    0.42857   0.71429   0.50000   |    2.03760   0.11225   0.79748    |
 |   373    0.42857   0.71429   0.57143   |    2.03760   0.11225   0.91140    |
 |   374    0.42857   0.71429   0.64286   |    2.03760   0.11225   1.02533    |
 |   375    0.42857   0.71429   0.71429   |    2.03760   0.11225   1.13926    |
 |   376    0.42857   0.71429   0.78571   |    2.03760   0.11225   1.25318    |
 |   377    0.42857   0.71429   0.85714   |    2.03760   0.11225   1.36711    |
 |   378    0.42857   0.71429   0.92857   |    2.03760   0.11225   1.48103    |
 |   379    0.42857   0.85714   0.00000   |    2.29230   0.16838   0.00000    |
 |   380    0.42857   0.85714   0.07143   |    2.29230   0.16838   0.11393    |
 |   381    0.42857   0.85714   0.14286   |    2.29230   0.16838   0.22785    |
 |   382    0.42857   0.85714   0.21429   |    2.29230   0.16838   0.34178    |
 |   383    0.42857   0.85714   0.28571   |    2.29230   0.16838   0.45570    |
 |   384    0.42857   0.85714   0.35714   |    2.29230   0.16838   0.56963    |
 |   385    0.42857   0.85714   0.42857   |    2.29230   0.16838   0.68355    |
 |   386    0.42857   0.85714   0.50000   |    2.29230   0.16838   0.79748    |
 |   387    0.42857   0.85714   0.57143   |    2.29230   0.16838   0.91140    |
 |   388    0.42857   0.85714   0.64286   |    2.29230   0.16838   1.02533    |
 |   389    0.42857   0.85714   0.71429   |    2.29230   0.16838   1.13926    |
 |   390    0.42857   0.85714   0.78571   |    2.29230   0.16838   1.25318    |
 |   391    0.42857   0.85714   0.85714   |    2.29230   0.16838   1.36711    |
 |   392    0.42857   0.85714   0.92857   |    2.29230   0.16838   1.48103    |
 |   393    0.57143   0.00000   0.00000   |    1.01880  -0.22451   0.00000    |
 |   394    0.57143   0.00000   0.07143   |    1.01880  -0.22451   0.11393    |
 |   395    0.57143   0.00000   0.14286   |    1.01880  -0.22451   0.22785    |
 |   396    0.57143   0.00000   0.21429   |    1.01880  -0.22451   0.34178    |
 |   397    0.57143   0.00000   0.28571   |    1.01880  -0.22451   0.45570    |
 |   398    0.57143   0.00000   0.35714   |    1.01880  -0.22451   0.56963    |
 |   399    0.57143   0.00000   0.42857   |    1.01880  -0.22451   0.68355    |
 |   400    0.57143   0.00000   0.50000   |    1.01880  -0.22451   0.79748    |
 |   401    0.57143   0.00000   0.57143   |    1.01880  -0.22451   0.91140    |
 |   402    0.57143   0.00000   0.64286   |    1.01880  -0.22451   1.02533    |
 |   403    0.57143   0.00000   0.71429   |    1.01880  -0.22451   1.13926    |
 |   404    0.57143   0.00000   0.78571   |    1.01880  -0.22451   1.25318    |
 |   405    0.57143   0.00000   0.85714   |    1.01880  -0.22451   1.36711    |
 |   406    0.57143   0.00000   0.92857   |    1.01880  -0.22451   1.48103    |
 |   407    0.57143   0.14286   0.00000   |    1.27350  -0.16838   0.00000    |
 |   408    0.57143   0.14286   0.07143   |    1.27350  -0.16838   0.11393    |
 |   409    0.57143   0.14286   0.14286   |    1.27350  -0.16838   0.22785    |
 |   410    0.57143   0.14286   0.21429   |    1.27350  -0.16838   0.34178    |
 |   411    0.57143   0.14286   0.28571   |    1.27350  -0.16838   0.45570    |
 |   412    0.57143   0.14286   0.35714   |    1.27350  -0.16838   0.56963    |
 |   413    0.57143   0.14286   0.42857   |    1.27350  -0.16838   0.68355    |
 |   414    0.57143   0.14286   0.50000   |    1.27350  -0.16838   0.79748    |
 |   415    0.57143   0.14286   0.57143   |    1.27350  -0.16838   0.91140    |
 |   416    0.57143   0.14286   0.64286   |    1.27350  -0.16838   1.02533    |
 |   417    0.57143   0.14286   0.71429   |    1.27350  -0.16838   1.13926    |
 |   418    0.57143   0.14286   0.78571   |    1.27350  -0.16838   1.25318    |
 |   419    0.57143   0.14286   0.85714   |    1.27350  -0.16838   1.36711    |
 |   420    0.57143   0.14286   0.92857   |    1.27350  -0.16838   1.48103    |
 |   421    0.57143   0.28571   0.00000   |    1.52820  -0.11225   0.00000    |
 |   422    0.57143   0.28571   0.07143   |    1.52820  -0.11225   0.11393    |
 |   423    0.57143   0.28571   0.14286   |    1.52820  -0.11225   0.22785    |
 |   424    0.57143   0.28571   0.21429   |    1.52820  -0.11225   0.34178    |
 |   425    0.57143   0.28571   0.28571   |    1.52820  -0.11225   0.45570    |
 |   426    0.57143   0.28571   0.35714   |    1.52820  -0.11225   0.56963    |
 |   427    0.57143   0.28571   0.42857   |    1.52820  -0.11225   0.68355    |
 |   428    0.57143   0.28571   0.50000   |    1.52820  -0.11225   0.79748    |
 |   429    0.57143   0.28571   0.57143   |    1.52820  -0.11225   0.91140    |
 |   430    0.57143   0.28571   0.64286   |    1.52820  -0.11225   1.02533    |
 |   431    0.57143   0.28571   0.71429   |    1.52820  -0.11225   1.13926    |
 |   432    0.57143   0.28571   0.78571   |    1.52820  -0.11225   1.25318    |
 |   433    0.57143   0.28571   0.85714   |    1.52820  -0.11225   1.36711    |
 |   434    0.57143   0.28571   0.92857   |    1.52820  -0.11225   1.48103    |
 |   435    0.57143   0.42857   0.00000   |    1.78290  -0.05613   0.00000    |
 |   436    0.57143   0.42857   0.07143   |    1.78290  -0.05613   0.11393    |
 |   437    0.57143   0.42857   0.14286   |    1.78290  -0.05613   0.22785    |
 |   438    0.57143   0.42857   0.21429   |    1.78290  -0.05613   0.34178    |
 |   439    0.57143   0.42857   0.28571   |    1.78290  -0.05613   0.45570    |
 |   440    0.57143   0.42857   0.35714   |    1.78290  -0.05613   0.56963    |
 |   441    0.57143   0.42857   0.42857   |    1.78290  -0.05613   0.68355    |
 |   442    0.57143   0.42857   0.50000   |    1.78290  -0.05613   0.79748    |
 |   443    0.57143   0.42857   0.57143   |    1.78290  -0.05613   0.91140    |
 |   444    0.57143   0.42857   0.64286   |    1.78290  -0.05613   1.02533    |
 |   445    0.57143   0.42857   0.71429   |    1.78290  -0.05613   1.13926    |
 |   446    0.57143   0.42857   0.78571   |    1.78290  -0.05613   1.25318    |
 |   447    0.57143   0.42857   0.85714   |    1.78290  -0.05613   1.36711    |
 |   448    0.57143   0.42857   0.92857   |    1.78290  -0.05613   1.48103    |
 |   449    0.57143   0.57143   0.00000   |    2.03760   0.00000   0.00000    |
 |   450    0.57143   0.57143   0.07143   |    2.03760   0.00000   0.11393    |
 |   451    0.57143   0.57143   0.14286   |    2.03760   0.00000   0.22785    |
 |   452    0.57143   0.57143   0.21429   |    2.03760   0.00000   0.34178    |
 |   453    0.57143   0.57143   0.28571   |    2.03760   0.00000   0.45570    |
 |   454    0.57143   0.57143   0.35714   |    2.03760   0.00000   0.56963    |
 |   455    0.57143   0.57143   0.42857   |    2.03760   0.00000   0.68355    |
 |   456    0.57143   0.57143   0.50000   |    2.03760   0.00000   0.79748    |
 |   457    0.57143   0.57143   0.57143   |    2.03760   0.00000   0.91140    |
 |   458    0.57143   0.57143   0.64286   |    2.03760   0.00000   1.02533    |
 |   459    0.57143   0.57143   0.71429   |    2.03760   0.00000   1.13926    |
 |   460    0.57143   0.57143   0.78571   |    2.03760   0.00000   1.25318    |
 |   461    0.57143   0.57143   0.85714   |    2.03760   0.00000   1.36711    |
 |   462    0.57143   0.57143   0.92857   |    2.03760   0.00000   1.48103    |
 |   463    0.57143   0.71429   0.00000   |    2.29230   0.05613   0.00000    |
 |   464    0.57143   0.71429   0.07143   |    2.29230   0.05613   0.11393    |
 |   465    0.57143   0.71429   0.14286   |    2.29230   0.05613   0.22785    |
 |   466    0.57143   0.71429   0.21429   |    2.29230   0.05613   0.34178    |
 |   467    0.57143   0.71429   0.28571   |    2.29230   0.05613   0.45570    |
 |   468    0.57143   0.71429   0.35714   |    2.29230   0.05613   0.56963    |
 |   469    0.57143   0.71429   0.42857   |    2.29230   0.05613   0.68355    |
 |   470    0.57143   0.71429   0.50000   |    2.29230   0.05613   0.79748    |
 |   471    0.57143   0.71429   0.57143   |    2.29230   0.05613   0.91140    |
 |   472    0.57143   0.71429   0.64286   |    2.29230   0.05613   1.02533    |
 |   473    0.57143   0.71429   0.71429   |    2.29230   0.05613   1.13926    |
 |   474    0.57143   0.71429   0.78571   |    2.29230   0.05613   1.25318    |
 |   475    0.57143   0.71429   0.85714   |    2.29230   0.05613   1.36711    |
 |   476    0.57143   0.71429   0.92857   |    2.29230   0.05613   1.48103    |
 |   477    0.57143   0.85714   0.00000   |    2.54700   0.11225   0.00000    |
 |   478    0.57143   0.85714   0.07143   |    2.54700   0.11225   0.11393    |
 |   479    0.57143   0.85714   0.14286   |    2.54700   0.11225   0.22785    |
 |   480    0.57143   0.85714   0.21429   |    2.54700   0.11225   0.34178    |
 |   481    0.57143   0.85714   0.28571   |    2.54700   0.11225   0.45570    |
 |   482    0.57143   0.85714   0.35714   |    2.54700   0.11225   0.56963    |
 |   483    0.57143   0.85714   0.42857   |    2.54700   0.11225   0.68355    |
 |   484    0.57143   0.85714   0.50000   |    2.54700   0.11225   0.79748    |
 |   485    0.57143   0.85714   0.57143   |    2.54700   0.11225   0.91140    |
 |   486    0.57143   0.85714   0.64286   |    2.54700   0.11225   1.02533    |
 |   487    0.57143   0.85714   0.71429   |    2.54700   0.11225   1.13926    |
 |   488    0.57143   0.85714   0.78571   |    2.54700   0.11225   1.25318    |
 |   489    0.57143   0.85714   0.85714   |    2.54700   0.11225   1.36711    |
 |   490    0.57143   0.85714   0.92857   |    2.54700   0.11225   1.48103    |
 |   491    0.71429   0.00000   0.00000   |    1.27350  -0.28064   0.00000    |
 |   492    0.71429   0.00000   0.07143   |    1.27350  -0.28064   0.11393    |
 |   493    0.71429   0.00000   0.14286   |    1.27350  -0.28064   0.22785    |
 |   494    0.71429   0.00000   0.21429   |    1.27350  -0.28064   0.34178    |
 |   495    0.71429   0.00000   0.28571   |    1.27350  -0.28064   0.45570    |
 |   496    0.71429   0.00000   0.35714   |    1.27350  -0.28064   0.56963    |
 |   497    0.71429   0.00000   0.42857   |    1.27350  -0.28064   0.68355    |
 |   498    0.71429   0.00000   0.50000   |    1.27350  -0.28064   0.79748    |
 |   499    0.71429   0.00000   0.57143   |    1.27350  -0.28064   0.91140    |
 |   500    0.71429   0.00000   0.64286   |    1.27350  -0.28064   1.02533    |
 |   501    0.71429   0.00000   0.71429   |    1.27350  -0.28064   1.13926    |
 |   502    0.71429   0.00000   0.78571   |    1.27350  -0.28064   1.25318    |
 |   503    0.71429   0.00000   0.85714   |    1.27350  -0.28064   1.36711    |
 |   504    0.71429   0.00000   0.92857   |    1.27350  -0.28064   1.48103    |
 |   505    0.71429   0.14286   0.00000   |    1.52820  -0.22451   0.00000    |
 |   506    0.71429   0.14286   0.07143   |    1.52820  -0.22451   0.11393    |
 |   507    0.71429   0.14286   0.14286   |    1.52820  -0.22451   0.22785    |
 |   508    0.71429   0.14286   0.21429   |    1.52820  -0.22451   0.34178    |
 |   509    0.71429   0.14286   0.28571   |    1.52820  -0.22451   0.45570    |
 |   510    0.71429   0.14286   0.35714   |    1.52820  -0.22451   0.56963    |
 |   511    0.71429   0.14286   0.42857   |    1.52820  -0.22451   0.68355    |
 |   512    0.71429   0.14286   0.50000   |    1.52820  -0.22451   0.79748    |
 |   513    0.71429   0.14286   0.57143   |    1.52820  -0.22451   0.91140    |
 |   514    0.71429   0.14286   0.64286   |    1.52820  -0.22451   1.02533    |
 |   515    0.71429   0.14286   0.71429   |    1.52820  -0.22451   1.13926    |
 |   516    0.71429   0.14286   0.78571   |    1.52820  -0.22451   1.25318    |
 |   517    0.71429   0.14286   0.85714   |    1.52820  -0.22451   1.36711    |
 |   518    0.71429   0.14286   0.92857   |    1.52820  -0.22451   1.48103    |
 |   519    0.71429   0.28571   0.00000   |    1.78290  -0.16838   0.00000    |
 |   520    0.71429   0.28571   0.07143   |    1.78290  -0.16838   0.11393    |
 |   521    0.71429   0.28571   0.14286   |    1.78290  -0.16838   0.22785    |
 |   522    0.71429   0.28571   0.21429   |    1.78290  -0.16838   0.34178    |
 |   523    0.71429   0.28571   0.28571   |    1.78290  -0.16838   0.45570    |
 |   524    0.71429   0.28571   0.35714   |    1.78290  -0.16838   0.56963    |
 |   525    0.71429   0.28571   0.42857   |    1.78290  -0.16838   0.68355    |
 |   526    0.71429   0.28571   0.50000   |    1.78290  -0.16838   0.79748    |
 |   527    0.71429   0.28571   0.57143   |    1.78290  -0.16838   0.91140    |
 |   528    0.71429   0.28571   0.64286   |    1.78290  -0.16838   1.02533    |
 |   529    0.71429   0.28571   0.71429   |    1.78290  -0.16838   1.13926    |
 |   530    0.71429   0.28571   0.78571   |    1.78290  -0.16838   1.25318    |
 |   531    0.71429   0.28571   0.85714   |    1.78290  -0.16838   1.36711    |
 |   532    0.71429   0.28571   0.92857   |    1.78290  -0.16838   1.48103    |
 |   533    0.71429   0.42857   0.00000   |    2.03760  -0.11225   0.00000    |
 |   534    0.71429   0.42857   0.07143   |    2.03760  -0.11225   0.11393    |
 |   535    0.71429   0.42857   0.14286   |    2.03760  -0.11225   0.22785    |
 |   536    0.71429   0.42857   0.21429   |    2.03760  -0.11225   0.34178    |
 |   537    0.71429   0.42857   0.28571   |    2.03760  -0.11225   0.45570    |
 |   538    0.71429   0.42857   0.35714   |    2.03760  -0.11225   0.56963    |
 |   539    0.71429   0.42857   0.42857   |    2.03760  -0.11225   0.68355    |
 |   540    0.71429   0.42857   0.50000   |    2.03760  -0.11225   0.79748    |
 |   541    0.71429   0.42857   0.57143   |    2.03760  -0.11225   0.91140    |
 |   542    0.71429   0.42857   0.64286   |    2.03760  -0.11225   1.02533    |
 |   543    0.71429   0.42857   0.71429   |    2.03760  -0.11225   1.13926    |
 |   544    0.71429   0.42857   0.78571   |    2.03760  -0.11225   1.25318    |
 |   545    0.71429   0.42857   0.85714   |    2.03760  -0.11225   1.36711    |
 |   546    0.71429   0.42857   0.92857   |    2.03760  -0.11225   1.48103    |
 |   547    0.71429   0.57143   0.00000   |    2.29230  -0.05613   0.00000    |
 |   548    0.71429   0.57143   0.07143   |    2.29230  -0.05613   0.11393    |
 |   549    0.71429   0.57143   0.14286   |    2.29230  -0.05613   0.22785    |
 |   550    0.71429   0.57143   0.21429   |    2.29230  -0.05613   0.34178    |
 |   551    0.71429   0.57143   0.28571   |    2.29230  -0.05613   0.45570    |
 |   552    0.71429   0.57143   0.35714   |    2.29230  -0.05613   0.56963    |
 |   553    0.71429   0.57143   0.42857   |    2.29230  -0.05613   0.68355    |
 |   554    0.71429   0.57143   0.50000   |    2.29230  -0.05613   0.79748    |
 |   555    0.71429   0.57143   0.57143   |    2.29230  -0.05613   0.91140    |
 |   556    0.71429   0.57143   0.64286   |    2.29230  -0.05613   1.02533    |
 |   557    0.71429   0.57143   0.71429   |    2.29230  -0.05613   1.13926    |
 |   558    0.71429   0.57143   0.78571   |    2.29230  -0.05613   1.25318    |
 |   559    0.71429   0.57143   0.85714   |    2.29230  -0.05613   1.36711    |
 |   560    0.71429   0.57143   0.92857   |    2.29230  -0.05613   1.48103    |
 |   561    0.71429   0.71429   0.00000   |    2.54700  -0.00000   0.00000    |
 |   562    0.71429   0.71429   0.07143   |    2.54700  -0.00000   0.11393    |
 |   563    0.71429   0.71429   0.14286   |    2.54700  -0.00000   0.22785    |
 |   564    0.71429   0.71429   0.21429   |    2.54700  -0.00000   0.34178    |
 |   565    0.71429   0.71429   0.28571   |    2.54700  -0.00000   0.45570    |
 |   566    0.71429   0.71429   0.35714   |    2.54700  -0.00000   0.56963    |
 |   567    0.71429   0.71429   0.42857   |    2.54700  -0.00000   0.68355    |
 |   568    0.71429   0.71429   0.50000   |    2.54700  -0.00000   0.79748    |
 |   569    0.71429   0.71429   0.57143   |    2.54700  -0.00000   0.91140    |
 |   570    0.71429   0.71429   0.64286   |    2.54700  -0.00000   1.02533    |
 |   571    0.71429   0.71429   0.71429   |    2.54700  -0.00000   1.13926    |
 |   572    0.71429   0.71429   0.78571   |    2.54700  -0.00000   1.25318    |
 |   573    0.71429   0.71429   0.85714   |    2.54700  -0.00000   1.36711    |
 |   574    0.71429   0.71429   0.92857   |    2.54700  -0.00000   1.48103    |
 |   575    0.71429   0.85714   0.00000   |    2.80170   0.05613   0.00000    |
 |   576    0.71429   0.85714   0.07143   |    2.80170   0.05613   0.11393    |
 |   577    0.71429   0.85714   0.14286   |    2.80170   0.05613   0.22785    |
 |   578    0.71429   0.85714   0.21429   |    2.80170   0.05613   0.34178    |
 |   579    0.71429   0.85714   0.28571   |    2.80170   0.05613   0.45570    |
 |   580    0.71429   0.85714   0.35714   |    2.80170   0.05613   0.56963    |
 |   581    0.71429   0.85714   0.42857   |    2.80170   0.05613   0.68355    |
 |   582    0.71429   0.85714   0.50000   |    2.80170   0.05613   0.79748    |
 |   583    0.71429   0.85714   0.57143   |    2.80170   0.05613   0.91140    |
 |   584    0.71429   0.85714   0.64286   |    2.80170   0.05613   1.02533    |
 |   585    0.71429   0.85714   0.71429   |    2.80170   0.05613   1.13926    |
 |   586    0.71429   0.85714   0.78571   |    2.80170   0.05613   1.25318    |
 |   587    0.71429   0.85714   0.85714   |    2.80170   0.05613   1.36711    |
 |   588    0.71429   0.85714   0.92857   |    2.80170   0.05613   1.48103    |
 |   589    0.85714   0.00000   0.00000   |    1.52820  -0.33676   0.00000    |
 |   590    0.85714   0.00000   0.07143   |    1.52820  -0.33676   0.11393    |
 |   591    0.85714   0.00000   0.14286   |    1.52820  -0.33676   0.22785    |
 |   592    0.85714   0.00000   0.21429   |    1.52820  -0.33676   0.34178    |
 |   593    0.85714   0.00000   0.28571   |    1.52820  -0.33676   0.45570    |
 |   594    0.85714   0.00000   0.35714   |    1.52820  -0.33676   0.56963    |
 |   595    0.85714   0.00000   0.42857   |    1.52820  -0.33676   0.68355    |
 |   596    0.85714   0.00000   0.50000   |    1.52820  -0.33676   0.79748    |
 |   597    0.85714   0.00000   0.57143   |    1.52820  -0.33676   0.91140    |
 |   598    0.85714   0.00000   0.64286   |    1.52820  -0.33676   1.02533    |
 |   599    0.85714   0.00000   0.71429   |    1.52820  -0.33676   1.13926    |
 |   600    0.85714   0.00000   0.78571   |    1.52820  -0.33676   1.25318    |
 |   601    0.85714   0.00000   0.85714   |    1.52820  -0.33676   1.36711    |
 |   602    0.85714   0.00000   0.92857   |    1.52820  -0.33676   1.48103    |
 |   603    0.85714   0.14286   0.00000   |    1.78290  -0.28064   0.00000    |
 |   604    0.85714   0.14286   0.07143   |    1.78290  -0.28064   0.11393    |
 |   605    0.85714   0.14286   0.14286   |    1.78290  -0.28064   0.22785    |
 |   606    0.85714   0.14286   0.21429   |    1.78290  -0.28064   0.34178    |
 |   607    0.85714   0.14286   0.28571   |    1.78290  -0.28064   0.45570    |
 |   608    0.85714   0.14286   0.35714   |    1.78290  -0.28064   0.56963    |
 |   609    0.85714   0.14286   0.42857   |    1.78290  -0.28064   0.68355    |
 |   610    0.85714   0.14286   0.50000   |    1.78290  -0.28064   0.79748    |
 |   611    0.85714   0.14286   0.57143   |    1.78290  -0.28064   0.91140    |
 |   612    0.85714   0.14286   0.64286   |    1.78290  -0.28064   1.02533    |
 |   613    0.85714   0.14286   0.71429   |    1.78290  -0.28064   1.13926    |
 |   614    0.85714   0.14286   0.78571   |    1.78290  -0.28064   1.25318    |
 |   615    0.85714   0.14286   0.85714   |    1.78290  -0.28064   1.36711    |
 |   616    0.85714   0.14286   0.92857   |    1.78290  -0.28064   1.48103    |
 |   617    0.85714   0.28571   0.00000   |    2.03760  -0.22451   0.00000    |
 |   618    0.85714   0.28571   0.07143   |    2.03760  -0.22451   0.11393    |
 |   619    0.85714   0.28571   0.14286   |    2.03760  -0.22451   0.22785    |
 |   620    0.85714   0.28571   0.21429   |    2.03760  -0.22451   0.34178    |
 |   621    0.85714   0.28571   0.28571   |    2.03760  -0.22451   0.45570    |
 |   622    0.85714   0.28571   0.35714   |    2.03760  -0.22451   0.56963    |
 |   623    0.85714   0.28571   0.42857   |    2.03760  -0.22451   0.68355    |
 |   624    0.85714   0.28571   0.50000   |    2.03760  -0.22451   0.79748    |
 |   625    0.85714   0.28571   0.57143   |    2.03760  -0.22451   0.91140    |
 |   626    0.85714   0.28571   0.64286   |    2.03760  -0.22451   1.02533    |
 |   627    0.85714   0.28571   0.71429   |    2.03760  -0.22451   1.13926    |
 |   628    0.85714   0.28571   0.78571   |    2.03760  -0.22451   1.25318    |
 |   629    0.85714   0.28571   0.85714   |    2.03760  -0.22451   1.36711    |
 |   630    0.85714   0.28571   0.92857   |    2.03760  -0.22451   1.48103    |
 |   631    0.85714   0.42857   0.00000   |    2.29230  -0.16838   0.00000    |
 |   632    0.85714   0.42857   0.07143   |    2.29230  -0.16838   0.11393    |
 |   633    0.85714   0.42857   0.14286   |    2.29230  -0.16838   0.22785    |
 |   634    0.85714   0.42857   0.21429   |    2.29230  -0.16838   0.34178    |
 |   635    0.85714   0.42857   0.28571   |    2.29230  -0.16838   0.45570    |
 |   636    0.85714   0.42857   0.35714   |    2.29230  -0.16838   0.56963    |
 |   637    0.85714   0.42857   0.42857   |    2.29230  -0.16838   0.68355    |
 |   638    0.85714   0.42857   0.50000   |    2.29230  -0.16838   0.79748    |
 |   639    0.85714   0.42857   0.57143   |    2.29230  -0.16838   0.91140    |
 |   640    0.85714   0.42857   0.64286   |    2.29230  -0.16838   1.02533    |
 |   641    0.85714   0.42857   0.71429   |    2.29230  -0.16838   1.13926    |
 |   642    0.85714   0.42857   0.78571   |    2.29230  -0.16838   1.25318    |
 |   643    0.85714   0.42857   0.85714   |    2.29230  -0.16838   1.36711    |
 |   644    0.85714   0.42857   0.92857   |    2.29230  -0.16838   1.48103    |
 |   645    0.85714   0.57143   0.00000   |    2.54700  -0.11225   0.00000    |
 |   646    0.85714   0.57143   0.07143   |    2.54700  -0.11225   0.11393    |
 |   647    0.85714   0.57143   0.14286   |    2.54700  -0.11225   0.22785    |
 |   648    0.85714   0.57143   0.21429   |    2.54700  -0.11225   0.34178    |
 |   649    0.85714   0.57143   0.28571   |    2.54700  -0.11225   0.45570    |
 |   650    0.85714   0.57143   0.35714   |    2.54700  -0.11225   0.56963    |
 |   651    0.85714   0.57143   0.42857   |    2.54700  -0.11225   0.68355    |
 |   652    0.85714   0.57143   0.50000   |    2.54700  -0.11225   0.79748    |
 |   653    0.85714   0.57143   0.57143   |    2.54700  -0.11225   0.91140    |
 |   654    0.85714   0.57143   0.64286   |    2.54700  -0.11225   1.02533    |
 |   655    0.85714   0.57143   0.71429   |    2.54700  -0.11225   1.13926    |
 |   656    0.85714   0.57143   0.78571   |    2.54700  -0.11225   1.25318    |
 |   657    0.85714   0.57143   0.85714   |    2.54700  -0.11225   1.36711    |
 |   658    0.85714   0.57143   0.92857   |    2.54700  -0.11225   1.48103    |
 |   659    0.85714   0.71429   0.00000   |    2.80170  -0.05613   0.00000    |
 |   660    0.85714   0.71429   0.07143   |    2.80170  -0.05613   0.11393    |
 |   661    0.85714   0.71429   0.14286   |    2.80170  -0.05613   0.22785    |
 |   662    0.85714   0.71429   0.21429   |    2.80170  -0.05613   0.34178    |
 |   663    0.85714   0.71429   0.28571   |    2.80170  -0.05613   0.45570    |
 |   664    0.85714   0.71429   0.35714   |    2.80170  -0.05613   0.56963    |
 |   665    0.85714   0.71429   0.42857   |    2.80170  -0.05613   0.68355    |
 |   666    0.85714   0.71429   0.50000   |    2.80170  -0.05613   0.79748    |
 |   667    0.85714   0.71429   0.57143   |    2.80170  -0.05613   0.91140    |
 |   668    0.85714   0.71429   0.64286   |    2.80170  -0.05613   1.02533    |
 |   669    0.85714   0.71429   0.71429   |    2.80170  -0.05613   1.13926    |
 |   670    0.85714   0.71429   0.78571   |    2.80170  -0.05613   1.25318    |
 |   671    0.85714   0.71429   0.85714   |    2.80170  -0.05613   1.36711    |
 |   672    0.85714   0.71429   0.92857   |    2.80170  -0.05613   1.48103    |
 |   673    0.85714   0.85714   0.00000   |    3.05640  -0.00000   0.00000    |
 |   674    0.85714   0.85714   0.07143   |    3.05640  -0.00000   0.11393    |
 |   675    0.85714   0.85714   0.14286   |    3.05640  -0.00000   0.22785    |
 |   676    0.85714   0.85714   0.21429   |    3.05640  -0.00000   0.34178    |
 |   677    0.85714   0.85714   0.28571   |    3.05640  -0.00000   0.45570    |
 |   678    0.85714   0.85714   0.35714   |    3.05640  -0.00000   0.56963    |
 |   679    0.85714   0.85714   0.42857   |    3.05640  -0.00000   0.68355    |
 |   680    0.85714   0.85714   0.50000   |    3.05640  -0.00000   0.79748    |
 |   681    0.85714   0.85714   0.57143   |    3.05640  -0.00000   0.91140    |
 |   682    0.85714   0.85714   0.64286   |    3.05640  -0.00000   1.02533    |
 |   683    0.85714   0.85714   0.71429   |    3.05640  -0.00000   1.13926    |
 |   684    0.85714   0.85714   0.78571   |    3.05640  -0.00000   1.25318    |
 |   685    0.85714   0.85714   0.85714   |    3.05640  -0.00000   1.36711    |
 |   686    0.85714   0.85714   0.92857   |    3.05640  -0.00000   1.48103    |
 *----------------------------------------------------------------------------*
  
  
 *---------------------------------- MAIN ------------------------------------*
 |  Number of Wannier Functions               :                 2             |
 |  Number of Objective Wannier Functions     :                 2             |
 |  Number of input Bloch states              :                 6             |
 |  Output verbosity (1=low, 5=high)          :                 2             |
 |  Timing Level (1=low, 5=high)              :                 1             |
 |  Optimisation (0=memory, 3=speed)          :                 3             |
 |  Length Unit                               :               Ang             |
 |  Post-processing setup (write *.nnkp)      :                 F             |
 |  Using Gamma-only branch of algorithms     :                 F             |
 |  Wavefunction (UNK) file-type              :       unformatted             |
 |  Wavefunction spin channel                 :                up             |
 *----------------------------------------------------------------------------*
 *------------------------------- WANNIERISE ---------------------------------*
 |  Total number of iterations                :              1000             |
 |  Number of CG steps before reset           :                 5             |
 |  Trial step length for line search         :             2.000             |
 |  Convergence tolerence                     :         0.100E-11             |
 |  Convergence window                        :                 5             |
 |  Iterations between writing output         :                 1             |
 |  Iterations between backing up to disk     :               100             |
 |  Write r^2_nm to file                      :                 F             |
 |  Write xyz WF centres to file              :                 T             |
 |  Write on-site energies <0n|H|0n> to file  :                 F             |
 |  Use guiding centre to control phases      :                 F             |
 |  Use phases for initial projections        :                 F             |
 *----------------------------------------------------------------------------*
 *------------------------------- DISENTANGLE --------------------------------*
 |  Using band disentanglement                :                 T             |
 |  Total number of iterations                :              1000             |
 |  Mixing ratio                              :             0.500             |
 |  Convergence tolerence                     :         1.000E-12             |
 |  Convergence window                        :                 3             |
 *----------------------------------------------------------------------------*
 *-------------------------------- PLOTTING ----------------------------------*
 |  Plotting Wannier functions                :                 T             |
 |   Size of supercell for plotting           :     3x    3x    3             |
 |   Plotting mode (molecule or crystal)      :           crystal             |
 |   Plotting format                          :          xcrysden             |
 *----------------------------------------------------------------------------*
 |  Plotting interpolated bandstructure       :                 T             |
 |   Number of K-path sections                :                 5             |
 |   Divisions along first K-path section     :               100             |
 |   Output format                            :           gnuplot             |
 |   Output mode                              :               s-k             |
 *----------------------------------------------------------------------------*
 |   K-space path sections:                                                   |
 |    From: G       0.000  0.000  0.000     To: X       0.000  0.000  0.500   |
 |    From: X       0.000  0.000  0.500     To: M       0.250  0.250  0.500   |
 |    From: M       0.250  0.250  0.500     To: Y       0.250  0.250  0.000   |
 |    From: Y       0.250  0.250  0.000     To: G       0.000  0.000  0.000   |
 |    From: G       0.000  0.000  0.000     To: Z      -0.250  0.250  0.000   |
 *----------------------------------------------------------------------------*
 |  Plotting Hamiltonian in WF basis          :                 T             |
 *----------------------------------------------------------------------------*
 Time to read parameters        0.092 (sec)

 *---------------------------------- K-MESH ----------------------------------*
 +----------------------------------------------------------------------------+
 |                    Distance to Nearest-Neighbour Shells                    |
 |                    ------------------------------------                    |
 |          Shell             Distance (Ang^-1)          Multiplicity         |
 |          -----             -----------------          ------------         |
 |             1                   0.112254                      2            |
 |             2                   0.113926                      2            |
 |             3                   0.159938                      4            |
 |             4                   0.224509                      2            |
 |             5                   0.227851                      2            |
 |             6                   0.251760                      4            |
 |             7                   0.254002                      4            |
 |             8                   0.260811                      4            |
 |             9                   0.284607                      8            |
 |            10                   0.305327                      4            |
 |            11                   0.319875                      4            |
 |            12                   0.325889                      8            |
 |            13                   0.336763                      2            |
 |            14                   0.341777                      2            |
 |            15                   0.346321                      8            |
 |            16                   0.355512                      4            |
 |            17                   0.359739                      4            |
 |            18                   0.378984                      4            |
 |            19                   0.380973                      8            |
 |            20                   0.395737                      8            |
 |            21                   0.406602                      4            |
 |            22                   0.408920                      4            |
 |            23                   0.429923                      8            |
 |            24                   0.442204                      8            |
 |            25                   0.449017                      2            |
 |            26                   0.455702                      2            |
 |            27                   0.458297                      8            |
 |            28                   0.463245                      4            |
 |            29                   0.468225                      4            |
 |            30                   0.469325                      4            |
 |            31                   0.479813                      4            |
 |            32                   0.481886                      8            |
 |            33                   0.503520                      4            |
 |            34                   0.508005                      4            |
 |            35                   0.509400                      2            |
 |            36                   0.510333                      8            |
 +----------------------------------------------------------------------------+
 | The b-vectors are chosen automatically                                     |
 | Shell:  1 w_b   39.6792555      (Ang^2)                                    |
 | Shell:  1 w_b   39.6792555      (Ang^2)                                    |
 | Shell:  2 w_b   38.5236578      (Ang^2)                                    |
 | SVD found small singular value, Rejecting this shell and trying the next   |
 | SVD found small singular value, Rejecting this shell and trying the next   |
 | SVD found small singular value, Rejecting this shell and trying the next   |
 | Shell:  1 w_b   37.7523841      (Ang^2)                                    |
 | Shell:  2 w_b   38.5236578      (Ang^2)                                    |
 | Shell:  3 w_b    3.8537428      (Ang^2)                                    |
 | The following shells are used:   1,  2,  8                                 |
 +----------------------------------------------------------------------------+
 |                        Shell   # Nearest-Neighbours                        |
 |                        -----   --------------------                        |
 |                          1               2                                 |
 |                          2               2                                 |
 |                          8               4                                 |
 +----------------------------------------------------------------------------+
 | Completeness relation is fully satisfied [Eq. (B1), PRB 56, 12847 (1997)]  |
 +----------------------------------------------------------------------------+
 |                  b_k Vectors (Ang^-1) and Weights (Ang^2)                  |
 |                  ----------------------------------------                  |
 |            No.         b_k(x)      b_k(y)      b_k(z)        w_b           |
 |            ---        --------------------------------     --------        |
 |             1         0.000000   -0.112254    0.000000    37.752384        |
 |             2         0.000000    0.112254    0.000000    37.752384        |
 |             3         0.000000    0.000000    0.113926    38.523658        |
 |             4         0.000000    0.000000   -0.113926    38.523658        |
 |             5         0.254700    0.056127    0.000000     3.853743        |
 |             6         0.254700   -0.056127    0.000000     3.853743        |
 |             7        -0.254700   -0.056127    0.000000     3.853743        |
 |             8        -0.254700    0.056127    0.000000     3.853743        |
 +----------------------------------------------------------------------------+
 |                           b_k Directions (Ang^-1)                          |
 |                           -----------------------                          |
 |            No.           x           y           z                         |
 |            ---        --------------------------------                     |
 |             1         0.000000   -0.112254    0.000000                     |
 |             2         0.000000    0.000000    0.113926                     |
 |             3         0.254700    0.056127    0.000000                     |
 |             4         0.254700   -0.056127    0.000000                     |
 +----------------------------------------------------------------------------+
  
 Time to get kmesh              0.207 (sec)
 *============================================================================*
 |                              MEMORY ESTIMATE                               |
 |         Maximum RAM allocated during each phase of the calculation         |
 *============================================================================*
 |                        Disentanglement            4.43 Mb                  |
 |                            Wannierise:            1.67 Mb                  |
 |                                                                            |
 |   N.B. by setting optimisation=0 memory usage will be reduced to:          |
 |                        Disentanglement            4.43 Mb                  |
 |                            Wannierise:            1.34 Mb                  |
 |   However, this will result in more i/o and slow down the calculation      |
 |                          plot_wannier:            1.67 Mb                  |
 *----------------------------------------------------------------------------*
  
 Starting a new Wannier90 calculation ...


 Reading overlaps from sccuo2.mmn    :  Created on 24Apr2023 at  9:43:55

 Reading projections from sccuo2.amn :  Created on 24Apr2023 at  9:42:55

 Time to read overlaps          0.249 (sec)

 *------------------------------- DISENTANGLE --------------------------------*
 +----------------------------------------------------------------------------+
 |                              Energy  Windows                               |
 |                              ---------------                               |
 |                   Outer:    8.00000  to   11.00000  (eV)                   |
 |                   Inner:    8.90000  to   11.00000  (eV)                   |
 +----------------------------------------------------------------------------+
 |                        K-points with Frozen States                         |
 |                        ---------------------------                         |
 |     3     4     5     6     7     8     9    10    11    12    13    17    |
 |    18    19    20    21    22    23    24    25    26    27    31    32    |
 |    33    34    35    36    37    38    39    40    41    45    46    47    |
 |    48    49    50    51    52    53    54    55    59    60    61    62    |
 |    63    64    65    66    67    68    69    73    74    75    76    77    |
 |    78    79    80    81    82    83    87    88    89    90    91    92    |
 |    93    94    95    96    97   101   102   103   104   105   106   107    |
 |   108   109   110   111   115   116   117   118   119   120   121   122    |
 |   123   124   125   129   130   131   132   133   134   135   136   137    |
 |   138   139   143   144   145   146   147   148   149   150   151   152    |
 |   153   157   158   159   160   161   162   163   164   165   166   167    |
 |   171   172   173   174   175   176   177   178   179   180   181   185    |
 |   186   187   188   189   190   191   192   193   194   195   199   200    |
 |   201   202   203   204   205   206   207   208   209   213   214   215    |
 |   216   217   218   219   220   221   222   223   227   228   229   230    |
 |   231   232   233   234   235   236   237   241   242   243   244   245    |
 |   246   247   248   249   250   251   255   256   257   258   259   260    |
 |   261   262   263   264   265   269   270   271   272   273   274   275    |
 |   276   277   278   279   283   284   285   286   287   288   289   290    |
 |   291   292   293   297   298   299   300   301   302   303   304   305    |
 |   306   307   311   312   313   314   315   316   317   318   319   320    |
 |   321   325   326   327   328   329   330   331   332   333   334   335    |
 |   339   340   341   342   343   344   345   346   347   348   349   353    |
 |   354   355   356   357   358   359   360   361   362   363   367   368    |
 |   369   370   371   372   373   374   375   376   377   381   382   383    |
 |   384   385   386   387   388   389   390   391   395   396   397   398    |
 |   399   400   401   402   403   404   405   409   410   411   412   413    |
 |   414   415   416   417   418   419   423   424   425   426   427   428    |
 |   429   430   431   432   433   437   438   439   440   441   442   443    |
 |   444   445   446   447   451   452   453   454   455   456   457   458    |
 |   459   460   461   465   466   467   468   469   470   471   472   473    |
 |   474   475   479   480   481   482   483   484   485   486   487   488    |
 |   489   493   494   495   496   497   498   499   500   501   502   503    |
 |   507   508   509   510   511   512   513   514   515   516   517   521    |
 |   522   523   524   525   526   527   528   529   530   531   535   536    |
 |   537   538   539   540   541   542   543   544   545   549   550   551    |
 |   552   553   554   555   556   557   558   559   563   564   565   566    |
 |   567   568   569   570   571   572   573   577   578   579   580   581    |
 |   582   583   584   585   586   587   591   592   593   594   595   596    |
 |   597   598   599   600   601   605   606   607   608   609   610   611    |
 |   612   613   614   615   619   620   621   622   623   624   625   626    |
 |   627   628   629   633   634   635   636   637   638   639   640   641    |
 |   642   643   647   648   649   650   651   652   653   654   655   656    |
 |   657   661   662   663   664   665   666   667   668   669   670   671    |
 |   675   676   677   678   679   680   681   682   683   684   685          |
 +----------------------------------------------------------------------------+
[...]
        O_D=      0.0148261 O_OD=      0.0022611 O_TOT=      8.0782357 <-- SPRD
 Delta: O_D=  0.5238380E-08 O_OD= -0.7821672E-08 O_TOT= -0.2583290E-08 <-- DLTA
 ------------------------------------------------------------------------------
 Cycle:     52
  WF centre and spread    1  (  1.762070,  9.070830,  0.984847 )     3.93685626
  WF centre and spread    2  (  0.000000, 14.969627,  2.954558 )     4.14136662
  Sum of centres and spreads (  1.762070, 24.040458,  3.939405 )     8.07822289

     52    -0.237E-08     0.0000386149        8.0782356522       1.37  <-- CONV
        O_D=      0.0148261 O_OD=      0.0022611 O_TOT=      8.0782357 <-- SPRD
 Delta: O_D=  0.1004444E-07 O_OD= -0.1241801E-07 O_TOT= -0.2373566E-08 <-- DLTA
 ------------------------------------------------------------------------------
 Cycle:     53
  WF centre and spread    1  (  1.762070,  9.070830,  0.984847 )     3.93685702
  WF centre and spread    2  (  0.000000, 14.969627,  2.954558 )     4.14136586
  Sum of centres and spreads (  1.762070, 24.040458,  3.939405 )     8.07822288

     53    -0.162E-08     0.0000458476        8.0782356506       1.38  <-- CONV
        O_D=      0.0148261 O_OD=      0.0022611 O_TOT=      8.0782357 <-- SPRD
 Delta: O_D=  0.1075521E-07 O_OD= -0.1237664E-07 O_TOT= -0.1621428E-08 <-- DLTA
 ------------------------------------------------------------------------------
 Cycle:     54
  WF centre and spread    1  (  1.762070,  9.070831,  0.984847 )     3.93685739
  WF centre and spread    2  (  0.000000, 14.969627,  2.954558 )     4.14136549
  Sum of centres and spreads (  1.762070, 24.040458,  3.939405 )     8.07822288

     54    -0.107E-08     0.0000350141        8.0782356495       1.39  <-- CONV
        O_D=      0.0148261 O_OD=      0.0022611 O_TOT=      8.0782356 <-- SPRD
 Delta: O_D=  0.1340957E-07 O_OD= -0.1447517E-07 O_TOT= -0.1065601E-08 <-- DLTA
 ------------------------------------------------------------------------------
 Cycle:     55
  WF centre and spread    1  (  1.762070,  9.070831,  0.984847 )     3.93685723
  WF centre and spread    2  (  0.000000, 14.969627,  2.954558 )     4.14136565
  Sum of centres and spreads (  1.762070, 24.040458,  3.939405 )     8.07822288

     55    -0.136E-08     0.0000563389        8.0782356482       1.40  <-- CONV
        O_D=      0.0148261 O_OD=      0.0022611 O_TOT=      8.0782356 <-- SPRD
 Delta: O_D=  0.7124194E-09 O_OD= -0.2070916E-08 O_TOT= -0.1358497E-08 <-- DLTA
 ------------------------------------------------------------------------------
 Cycle:     56
  WF centre and spread    1  (  1.762070,  9.070831,  0.984847 )     3.93685723
  WF centre and spread    2  (  0.000000, 14.969627,  2.954558 )     4.14136565
  Sum of centres and spreads (  1.762070, 24.040458,  3.939405 )     8.07822288

     56    -0.201E-11     0.0000262824        8.0782356482       1.41  <-- CONV
        O_D=      0.0148261 O_OD=      0.0022611 O_TOT=      8.0782356 <-- SPRD
 Delta: O_D=  0.2912452E-11 O_OD= -0.4919700E-11 O_TOT= -0.2007283E-11 <-- DLTA
 ------------------------------------------------------------------------------
 Cycle:     57
  WF centre and spread    1  (  1.762070,  9.070831,  0.984847 )     3.93685694
  WF centre and spread    2  (  0.000000, 14.969627,  2.954558 )     4.14136594
  Sum of centres and spreads (  1.762070, 24.040458,  3.939405 )     8.07822288

     57    -0.605E-09     0.0000262440        8.0782356476       1.42  <-- CONV
        O_D=      0.0148261 O_OD=      0.0022611 O_TOT=      8.0782356 <-- SPRD
 Delta: O_D=  0.1694923E-08 O_OD= -0.2300140E-08 O_TOT= -0.6052172E-09 <-- DLTA
 ------------------------------------------------------------------------------
 Cycle:     58
  WF centre and spread    1  (  1.762070,  9.070831,  0.984847 )     3.93685658
  WF centre and spread    2  (  0.000000, 14.969627,  2.954558 )     4.14136630
  Sum of centres and spreads (  1.762070, 24.040458,  3.939405 )     8.07822288

     58    -0.400E-09     0.0000256608        8.0782356472       1.43  <-- CONV
        O_D=      0.0148261 O_OD=      0.0022611 O_TOT=      8.0782356 <-- SPRD
 Delta: O_D=  0.2398034E-08 O_OD= -0.2797888E-08 O_TOT= -0.3998526E-09 <-- DLTA
 ------------------------------------------------------------------------------
 Cycle:     59
  WF centre and spread    1  (  1.762070,  9.070831,  0.984847 )     3.93685621
  WF centre and spread    2  (  0.000000, 14.969627,  2.954558 )     4.14136667
  Sum of centres and spreads (  1.762070, 24.040458,  3.939405 )     8.07822288

     59    -0.404E-09     0.0000288987        8.0782356468       1.44  <-- CONV
        O_D=      0.0148261 O_OD=      0.0022611 O_TOT=      8.0782356 <-- SPRD
 Delta: O_D=  0.2802569E-08 O_OD= -0.3206392E-08 O_TOT= -0.4038228E-09 <-- DLTA
 ------------------------------------------------------------------------------
 Cycle:     60
  WF centre and spread    1  (  1.762070,  9.070831,  0.984847 )     3.93685621
  WF centre and spread    2  (  0.000000, 14.969627,  2.954558 )     4.14136667
  Sum of centres and spreads (  1.762070, 24.040458,  3.939405 )     8.07822288

     60    -0.123E-11     0.0000185768        8.0782356468       1.45  <-- CONV
        O_D=      0.0148261 O_OD=      0.0022611 O_TOT=      8.0782356 <-- SPRD
 Delta: O_D=  0.7629005E-11 O_OD= -0.8855342E-11 O_TOT= -0.1227463E-11 <-- DLTA
 ------------------------------------------------------------------------------
 Cycle:     61
  WF centre and spread    1  (  1.762070,  9.070831,  0.984847 )     3.93685621
  WF centre and spread    2  (  0.000000, 14.969627,  2.954558 )     4.14136667
  Sum of centres and spreads (  1.762070, 24.040458,  3.939405 )     8.07822288

     61    -0.185E-09     0.0000185428        8.0782356466       1.46  <-- CONV
        O_D=      0.0148261 O_OD=      0.0022611 O_TOT=      8.0782356 <-- SPRD
 Delta: O_D=  0.4504287E-09 O_OD= -0.6350375E-09 O_TOT= -0.1846079E-09 <-- DLTA
 ------------------------------------------------------------------------------
 Cycle:     62
  WF centre and spread    1  (  1.762070,  9.070831,  0.984847 )     3.93685621
  WF centre and spread    2  (  0.000000, 14.969627,  2.954558 )     4.14136667
  Sum of centres and spreads (  1.762070, 24.040458,  3.939405 )     8.07822288

     62    -0.542E-12     0.0000110586        8.0782356466       1.47  <-- CONV
        O_D=      0.0148261 O_OD=      0.0022611 O_TOT=      8.0782356 <-- SPRD
 Delta: O_D=  0.2698158E-11 O_OD= -0.3241218E-11 O_TOT= -0.5417888E-12 <-- DLTA
 ------------------------------------------------------------------------------
 Cycle:     63
  WF centre and spread    1  (  1.762070,  9.070831,  0.984847 )     3.93685621
  WF centre and spread    2  (  0.000000, 14.969627,  2.954558 )     4.14136667
  Sum of centres and spreads (  1.762070, 24.040458,  3.939405 )     8.07822288

     63    -0.904E-12     0.0000110419        8.0782356466       1.47  <-- CONV
        O_D=      0.0148261 O_OD=      0.0022611 O_TOT=      8.0782356 <-- SPRD
 Delta: O_D=  0.4693248E-11 O_OD= -0.5595895E-11 O_TOT= -0.9041656E-12 <-- DLTA
 ------------------------------------------------------------------------------
 Cycle:     64
  WF centre and spread    1  (  1.762070,  9.070831,  0.984847 )     3.93685618
  WF centre and spread    2  (  0.000000, 14.969627,  2.954558 )     4.14136670
  Sum of centres and spreads (  1.762070, 24.040458,  3.939405 )     8.07822288

     64    -0.175E-09     0.0000110150        8.0782356464       1.48  <-- CONV
        O_D=      0.0148261 O_OD=      0.0022611 O_TOT=      8.0782356 <-- SPRD
 Delta: O_D=  0.1902799E-08 O_OD= -0.2077811E-08 O_TOT= -0.1750120E-09 <-- DLTA
 ------------------------------------------------------------------------------
 Cycle:     65
  WF centre and spread    1  (  1.762070,  9.070831,  0.984847 )     3.93685618
  WF centre and spread    2  (  0.000000, 14.969627,  2.954558 )     4.14136670
  Sum of centres and spreads (  1.762070, 24.040458,  3.939405 )     8.07822288

     65    -0.346E-12     0.0000106056        8.0782356464       1.49  <-- CONV
        O_D=      0.0148261 O_OD=      0.0022611 O_TOT=      8.0782356 <-- SPRD
 Delta: O_D=  0.8472334E-11 O_OD= -0.8818611E-11 O_TOT= -0.3463896E-12 <-- DLTA
 ------------------------------------------------------------------------------
 Cycle:     66
  WF centre and spread    1  (  1.762070,  9.070831,  0.984847 )     3.93685618
  WF centre and spread    2  (  0.000000, 14.969627,  2.954558 )     4.14136670
  Sum of centres and spreads (  1.762070, 24.040458,  3.939405 )     8.07822288

     66    -0.680E-12     0.0000106206        8.0782356464       1.50  <-- CONV
        O_D=      0.0148261 O_OD=      0.0022611 O_TOT=      8.0782356 <-- SPRD
 Delta: O_D=  0.1033464E-10 O_OD= -0.1101549E-10 O_TOT= -0.6803447E-12 <-- DLTA
 ------------------------------------------------------------------------------
 Cycle:     67
  WF centre and spread    1  (  1.762070,  9.070831,  0.984847 )     3.93685618
  WF centre and spread    2  (  0.000000, 14.969627,  2.954558 )     4.14136670
  Sum of centres and spreads (  1.762070, 24.040458,  3.939405 )     8.07822288

     67    -0.336E-12     0.0000106177        8.0782356464       1.50  <-- CONV
        O_D=      0.0148261 O_OD=      0.0022611 O_TOT=      8.0782356 <-- SPRD
 Delta: O_D=  0.1836314E-11 O_OD= -0.2171718E-11 O_TOT= -0.3357314E-12 <-- DLTA
 ------------------------------------------------------------------------------
 Cycle:     68
  WF centre and spread    1  (  1.762070,  9.070831,  0.984847 )     3.93685616
  WF centre and spread    2  (  0.000000, 14.969627,  2.954558 )     4.14136672
  Sum of centres and spreads (  1.762070, 24.040458,  3.939405 )     8.07822288

     68    -0.754E-10     0.0000105997        8.0782356463       1.51  <-- CONV
        O_D=      0.0148261 O_OD=      0.0022611 O_TOT=      8.0782356 <-- SPRD
 Delta: O_D=  0.5675461E-09 O_OD= -0.6429421E-09 O_TOT= -0.7539747E-10 <-- DLTA
 ------------------------------------------------------------------------------
 Cycle:     69
  WF centre and spread    1  (  1.762070,  9.070831,  0.984847 )     3.93685616
  WF centre and spread    2  (  0.000000, 14.969627,  2.954558 )     4.14136672
  Sum of centres and spreads (  1.762070, 24.040458,  3.939405 )     8.07822288

     69    -0.293E-12     0.0000070727        8.0782356463       1.52  <-- CONV
        O_D=      0.0148261 O_OD=      0.0022611 O_TOT=      8.0782356 <-- SPRD
 Delta: O_D=  0.3460244E-11 O_OD= -0.3754187E-11 O_TOT= -0.2930989E-12 <-- DLTA
 ------------------------------------------------------------------------------
 Cycle:     70
  WF centre and spread    1  (  1.762070,  9.070831,  0.984847 )     3.93685616
  WF centre and spread    2  (  0.000000, 14.969627,  2.954558 )     4.14136672
  Sum of centres and spreads (  1.762070, 24.040458,  3.939405 )     8.07822288

     70    -0.441E-12     0.0000070680        8.0782356463       1.53  <-- CONV
        O_D=      0.0148261 O_OD=      0.0022611 O_TOT=      8.0782356 <-- SPRD
 Delta: O_D=  0.5214012E-11 O_OD= -0.5655487E-11 O_TOT= -0.4405365E-12 <-- DLTA
 ------------------------------------------------------------------------------
 Cycle:     71
  WF centre and spread    1  (  1.762070,  9.070831,  0.984847 )     3.93685616
  WF centre and spread    2  (  0.000000, 14.969627,  2.954558 )     4.14136672
  Sum of centres and spreads (  1.762070, 24.040458,  3.939405 )     8.07822288

     71    -0.588E-12     0.0000070606        8.0782356463       1.53  <-- CONV
        O_D=      0.0148261 O_OD=      0.0022611 O_TOT=      8.0782356 <-- SPRD
 Delta: O_D=  0.6960646E-11 O_OD= -0.7548731E-11 O_TOT= -0.5879741E-12 <-- DLTA
 ------------------------------------------------------------------------------
 Cycle:     72
  WF centre and spread    1  (  1.762070,  9.070831,  0.984847 )     3.93685610
  WF centre and spread    2  (  0.000000, 14.969627,  2.954558 )     4.14136677
  Sum of centres and spreads (  1.762070, 24.040458,  3.939405 )     8.07822288

     72    -0.111E-09     0.0000070508        8.0782356462       1.54  <-- CONV
        O_D=      0.0148261 O_OD=      0.0022611 O_TOT=      8.0782356 <-- SPRD
 Delta: O_D=  0.1701920E-08 O_OD= -0.1813012E-08 O_TOT= -0.1110916E-09 <-- DLTA
 ------------------------------------------------------------------------------
 Cycle:     73
  WF centre and spread    1  (  1.762070,  9.070831,  0.984847 )     3.93685610
  WF centre and spread    2  (  0.000000, 14.969627,  2.954558 )     4.14136677
  Sum of centres and spreads (  1.762070, 24.040458,  3.939405 )     8.07822288

     73    -0.181E-12     0.0000078129        8.0782356462       1.55  <-- CONV
        O_D=      0.0148261 O_OD=      0.0022611 O_TOT=      8.0782356 <-- SPRD
 Delta: O_D=  0.1427771E-11 O_OD= -0.1609441E-11 O_TOT= -0.1811884E-12 <-- DLTA
 ------------------------------------------------------------------------------
 Cycle:     74
  WF centre and spread    1  (  1.762070,  9.070831,  0.984847 )     3.93685610
  WF centre and spread    2  (  0.000000, 14.969627,  2.954558 )     4.14136677
  Sum of centres and spreads (  1.762070, 24.040458,  3.939405 )     8.07822288

     74    -0.362E-12     0.0000078035        8.0782356462       1.56  <-- CONV
        O_D=      0.0148261 O_OD=      0.0022611 O_TOT=      8.0782356 <-- SPRD
 Delta: O_D=  0.2852878E-11 O_OD= -0.3214851E-11 O_TOT= -0.3623768E-12 <-- DLTA
 ------------------------------------------------------------------------------
 Cycle:     75
  WF centre and spread    1  (  1.762070,  9.070831,  0.984847 )     3.93685610
  WF centre and spread    2  (  0.000000, 14.969627,  2.954558 )     4.14136678
  Sum of centres and spreads (  1.762070, 24.040458,  3.939405 )     8.07822288

     75    -0.540E-12     0.0000077848        8.0782356462       1.56  <-- CONV
        O_D=      0.0148261 O_OD=      0.0022611 O_TOT=      8.0782356 <-- SPRD
 Delta: O_D=  0.4269234E-11 O_OD= -0.4808286E-11 O_TOT= -0.5400125E-12 <-- DLTA
 ------------------------------------------------------------------------------
 Cycle:     76
  WF centre and spread    1  (  1.762070,  9.070831,  0.984847 )     3.93685610
  WF centre and spread    2  (  0.000000, 14.969627,  2.954558 )     4.14136678
  Sum of centres and spreads (  1.762070, 24.040458,  3.939405 )     8.07822288

     76    -0.619E-10     0.0000077570        8.0782356462       1.57  <-- CONV
        O_D=      0.0148261 O_OD=      0.0022611 O_TOT=      8.0782356 <-- SPRD
 Delta: O_D=  0.7080672E-09 O_OD= -0.7699341E-09 O_TOT= -0.6186518E-10 <-- DLTA
 ------------------------------------------------------------------------------
 Cycle:     77
  WF centre and spread    1  (  1.762070,  9.070831,  0.984847 )     3.93685610
  WF centre and spread    2  (  0.000000, 14.969627,  2.954558 )     4.14136678
  Sum of centres and spreads (  1.762070, 24.040458,  3.939405 )     8.07822288

     77    -0.355E-12     0.0000066689        8.0782356462       1.58  <-- CONV
        O_D=      0.0148261 O_OD=      0.0022611 O_TOT=      8.0782356 <-- SPRD
 Delta: O_D=  0.5896884E-11 O_OD= -0.6249801E-11 O_TOT= -0.3552714E-12 <-- DLTA
 ------------------------------------------------------------------------------
 Cycle:     78
  WF centre and spread    1  (  1.762070,  9.070831,  0.984847 )     3.93685610
  WF centre and spread    2  (  0.000000, 14.969627,  2.954558 )     4.14136678
  Sum of centres and spreads (  1.762070, 24.040458,  3.939405 )     8.07822288

     78    -0.485E-12     0.0000066785        8.0782356461       1.59  <-- CONV
        O_D=      0.0148261 O_OD=      0.0022611 O_TOT=      8.0782356 <-- SPRD
 Delta: O_D=  0.7435169E-11 O_OD= -0.7920655E-11 O_TOT= -0.4849454E-12 <-- DLTA
 ------------------------------------------------------------------------------
 Cycle:     79
  WF centre and spread    1  (  1.762070,  9.070831,  0.984847 )     3.93685610
  WF centre and spread    2  (  0.000000, 14.969627,  2.954558 )     4.14136678
  Sum of centres and spreads (  1.762070, 24.040458,  3.939405 )     8.07822288

     79    -0.131E-12     0.0000066805        8.0782356461       1.59  <-- CONV
        O_D=      0.0148261 O_OD=      0.0022611 O_TOT=      8.0782356 <-- SPRD
 Delta: O_D=  0.1520770E-11 O_OD= -0.1653541E-11 O_TOT= -0.1314504E-12 <-- DLTA
 ------------------------------------------------------------------------------
 Cycle:     80
  WF centre and spread    1  (  1.762070,  9.070831,  0.984847 )     3.93685610
  WF centre and spread    2  (  0.000000, 14.969627,  2.954558 )     4.14136678
  Sum of centres and spreads (  1.762070, 24.040458,  3.939405 )     8.07822288

     80    -0.265E-12     0.0000066727        8.0782356461       1.60  <-- CONV
        O_D=      0.0148261 O_OD=      0.0022611 O_TOT=      8.0782356 <-- SPRD
 Delta: O_D=  0.3038377E-11 O_OD= -0.3302956E-11 O_TOT= -0.2646772E-12 <-- DLTA
 ------------------------------------------------------------------------------
 Cycle:     81
  WF centre and spread    1  (  1.762070,  9.070831,  0.984847 )     3.93685610
  WF centre and spread    2  (  0.000000, 14.969627,  2.954558 )     4.14136678
  Sum of centres and spreads (  1.762070, 24.040458,  3.939405 )     8.07822288

     81    -0.394E-12     0.0000066573        8.0782356461       1.60  <-- CONV
        O_D=      0.0148261 O_OD=      0.0022611 O_TOT=      8.0782356 <-- SPRD
 Delta: O_D=  0.4545980E-11 O_OD= -0.4940340E-11 O_TOT= -0.3943512E-12 <-- DLTA
 ------------------------------------------------------------------------------

             <<<     Delta < 1.000E-12  over  5 iterations     >>>
             <<< Wannierisation convergence criteria satisfied >>>

 Final State
  WF centre and spread    1  (  1.762070,  9.070831,  0.984847 )     3.93685610
  WF centre and spread    2  (  0.000000, 14.969627,  2.954558 )     4.14136678
  Sum of centres and spreads (  1.762070, 24.040458,  3.939405 )     8.07822288

         Spreads (Ang^2)       Omega I      =     8.061148416
        ================       Omega D      =     0.014826148
                               Omega OD     =     0.002261082
    Final Spread (Ang^2)       Omega Total  =     8.078235646
 ------------------------------------------------------------------------------

 Wannier centres written to file sccuo2_centres.xyz
 Time for wannierise            0.787 (sec)

 Writing checkpoint file sccuo2.chk... done

 *---------------------------------------------------------------------------*
 |                               PLOTTING                                    |
 *---------------------------------------------------------------------------*


 Calculating interpolated band-structure

 Time to calculate interpolated band structure       0.070 (sec)

      Wannier Function Num:    1       Maximum Im/Re Ratio =    0.000000
      Wannier Function Num:    2       Maximum Im/Re Ratio =    0.000000
  
 Time for plotting            517.555 (sec)
 Total Execution Time         519.700 (sec)

 *===========================================================================*
 |                             TIMING INFORMATION                            |
 *===========================================================================*
 |    Tag                                                Ncalls      Time (s)|
 |---------------------------------------------------------------------------|
 |kmesh: get                                        :         1         0.207|
 |overlap: allocate                                 :         1         0.000|
 |overlap: read                                     :         1         0.249|
 |dis: main                                         :         1         0.808|
 |wann: main                                        :         1         0.787|
 |plot: main                                        :         1       517.555|
 *---------------------------------------------------------------------------*

 All done: wannier90 exiting
