 written on 24Apr2023 at 10:35:34 
           2
         795
   -5   -2   -7    1    1   -0.000000    0.000000   -0.000002    0.000000   -0.000000    0.000000
   -5   -2   -7    2    1   -0.000011   -0.000000    0.000022   -0.000000   -0.000069    0.000000
   -5   -2   -7    1    2   -0.000007   -0.000000   -0.000012   -0.000000    0.000040    0.000000
   -5   -2   -7    2    2    0.000000    0.000000    0.000001   -0.000000   -0.000000    0.000000
   -5   -2   -6    1    1   -0.000000    0.000000   -0.000003    0.000000   -0.000007    0.000000
   -5   -2   -6    2    1   -0.000011   -0.000000    0.000022   -0.000000    0.000066   -0.000000
   -5   -2   -6    1    2    0.000003   -0.000000    0.000002   -0.000000    0.000104    0.000000
   -5   -2   -6    2    2    0.000000    0.000000    0.000005    0.000000    0.000002    0.000000
   -5   -2   -5    1    1   -0.000000   -0.000000   -0.000005   -0.000000   -0.000017   -0.000000
   -5   -2   -5    2    1   -0.000007   -0.000000    0.000030   -0.000000    0.000158   -0.000000
   -5   -2   -5    1    2    0.000017   -0.000000    0.000022    0.000000    0.000134   -0.000000
   -5   -2   -5    2    2    0.000000   -0.000000    0.000010    0.000000    0.000019    0.000000
   -5   -2   -4    1    1   -0.000000   -0.000000   -0.000004   -0.000000   -0.000025    0.000000
   -5   -2   -4    2    1    0.000005    0.000000    0.000037    0.000000    0.000172    0.000000
   -5   -2   -4    1    2    0.000024    0.000000    0.000033   -0.000000    0.000105    0.000000
   -5   -2   -4    2    2    0.000000   -0.000000    0.000011   -0.000000    0.000039   -0.000000
   -5   -2   -3    1    1   -0.000000   -0.000000   -0.000000   -0.000000   -0.000020   -0.000000
   -5   -2   -3    2    1    0.000007    0.000000    0.000035   -0.000000    0.000140   -0.000000
   -5   -2   -3    1    2    0.000019   -0.000000    0.000029   -0.000000    0.000021   -0.000000
   -5   -2   -3    2    2    0.000000    0.000000    0.000003    0.000000    0.000030    0.000000
   -5   -2   -2    1    1    0.000000   -0.000000    0.000005   -0.000000   -0.000001    0.000000
   -5   -2   -2    2    1    0.000020   -0.000000    0.000022   -0.000000    0.000124   -0.000000
   -5   -2   -2    1    2    0.000007    0.000000    0.000011    0.000000   -0.000063    0.000000
   -5   -2   -2    2    2   -0.000000   -0.000000   -0.000008   -0.000000   -0.000009   -0.000000
   -5   -2   -1    1    1   -0.000000    0.000000    0.000008   -0.000000    0.000009    0.000000
   -5   -2   -1    2    1    0.000008    0.000000    0.000009    0.000000    0.000108    0.000000
   -5   -2   -1    1    2   -0.000003    0.000000   -0.000006   -0.000000   -0.000098   -0.000000
   -5   -2   -1    2    2    0.000000   -0.000000   -0.000015   -0.000000   -0.000031   -0.000000
   -5   -2    0    1    1   -0.000000    0.000000    0.000008   -0.000000    0.000000    0.000000
   -5   -2    0    2    1    0.000012    0.000000    0.000001   -0.000000    0.000061   -0.000000
   -5   -2    0    1    2   -0.000003    0.000000   -0.000006   -0.000000   -0.000080    0.000000
   -5   -2    0    2    2    0.000000    0.000000   -0.000016    0.000000    0.000000    0.000000
   -5   -2    1    1    1   -0.000000    0.000000    0.000008   -0.000000   -0.000009   -0.000000
   -5   -2    1    2    1    0.000012   -0.000000    0.000001    0.000000   -0.000014   -0.000000
   -5   -2    1    1    2    0.000007    0.000000    0.000011    0.000000   -0.000051   -0.000000
   -5   -2    1    2    2    0.000000   -0.000000   -0.000015   -0.000000    0.000031    0.000000
   -5   -2    2    1    1    0.000000    0.000000    0.000005   -0.000000    0.000001   -0.000000
   -5   -2    2    2    1    0.000008    0.000000    0.000009   -0.000000   -0.000076    0.000000
   -5   -2    2    1    2    0.000019   -0.000000    0.000029   -0.000000   -0.000053    0.000000
   -5   -2    2    2    2   -0.000000   -0.000000   -0.000008    0.000000    0.000009    0.000000
   -5   -2    3    1    1   -0.000000    0.000000   -0.000000   -0.000000    0.000020    0.000000
   -5   -2    3    2    1    0.000020    0.000000    0.000022    0.000000   -0.000107   -0.000000
   -5   -2    3    1    2    0.000024    0.000000    0.000033   -0.000000   -0.000082   -0.000000
   -5   -2    3    2    2    0.000000    0.000000    0.000003   -0.000000   -0.000030   -0.000000
   -5   -2    4    1    1   -0.000000   -0.000000   -0.000004   -0.000000    0.000025    0.000000
   -5   -2    4    2    1    0.000007    0.000000    0.000035   -0.000000   -0.000129    0.000000
   -5   -2    4    1    2    0.000017   -0.000000    0.000022    0.000000   -0.000101    0.000000
   -5   -2    4    2    2    0.000000   -0.000000    0.000011    0.000000   -0.000039   -0.000000
   -5   -2    5    1    1   -0.000000   -0.000000   -0.000005    0.000000    0.000017   -0.000000
   -5   -2    5    2    1    0.000005    0.000000    0.000037    0.000000   -0.000162   -0.000000
   -5   -2    5    1    2    0.000003   -0.000000    0.000002   -0.000000   -0.000083    0.000000
   -5   -2    5    2    2    0.000000   -0.000000    0.000010   -0.000000   -0.000019    0.000000
   -5   -2    6    1    1   -0.000000    0.000000   -0.000003    0.000000    0.000007   -0.000000
   -5   -2    6    2    1   -0.000007    0.000000    0.000030    0.000000   -0.000153   -0.000000
   -5   -2    6    1    2   -0.000007    0.000000   -0.000012    0.000000   -0.000029   -0.000000
   -5   -2    6    2    2    0.000000    0.000000    0.000005    0.000000   -0.000002   -0.000000
   -5   -2    7    1    1   -0.000000    0.000000   -0.000002    0.000000    0.000000    0.000000
   -5   -2    7    2    1   -0.000011   -0.000000    0.000022   -0.000000   -0.000069    0.000000
   -5   -2    7    1    2   -0.000007   -0.000000   -0.000012   -0.000000    0.000040    0.000000
   -5   -2    7    2    2    0.000000    0.000000    0.000001   -0.000000    0.000000    0.000000
   -4   -3   -7    1    1    0.000000   -0.000000   -0.000081    0.000000   -0.000000    0.000000
   -4   -3   -7    2    1   -0.000070    0.000000    0.000181    0.000000    0.000017   -0.000000
   -4   -3   -7    1    2    0.000059    0.000000   -0.000017   -0.000000    0.000046    0.000000
   -4   -3   -7    2    2   -0.000000   -0.000000    0.000209    0.000000    0.000000    0.000000
   -4   -3   -6    1    1    0.000000    0.000000   -0.000064    0.000000   -0.000025    0.000000
   -4   -3   -6    2    1   -0.000070   -0.000000    0.000181   -0.000000   -0.000023   -0.000000
   -4   -3   -6    1    2    0.000023   -0.000000    0.000019    0.000000    0.000138    0.000000
   -4   -3   -6    2    2   -0.000000    0.000000    0.000202   -0.000000    0.000026   -0.000000
   -4   -3   -5    1    1    0.000000   -0.000000   -0.000037   -0.000000   -0.000049   -0.000000
   -4   -3   -5    2    1   -0.000038    0.000000    0.000129   -0.000000   -0.000029    0.000000
   -4   -3   -5    1    2   -0.000031   -0.000000    0.000064   -0.000000    0.000125   -0.000000
   -4   -3   -5    2    2   -0.000000   -0.000000    0.000184   -0.000000    0.000052   -0.000000
   -4   -3   -4    1    1    0.000000   -0.000000    0.000048    0.000000   -0.000059    0.000000
   -4   -3   -4    2    1    0.000015   -0.000000    0.000056    0.000000    0.000041    0.000000
   -4   -3   -4    1    2   -0.000091   -0.000000    0.000095   -0.000000    0.000081    0.000000
   -4   -3   -4    2    2   -0.000000   -0.000000    0.000091   -0.000000    0.000065   -0.000000
   -4   -3   -3    1    1   -0.000000   -0.000000    0.000039   -0.000000   -0.000106   -0.000000
   -4   -3   -3    2    1    0.000070   -0.000000    0.000006   -0.000000    0.000127    0.000000
   -4   -3   -3    1    2   -0.000127    0.000000    0.000107    0.000000    0.000072   -0.000000
   -4   -3   -3    2    2    0.000000    0.000000    0.000047   -0.000000    0.000097   -0.000000
   -4   -3   -2    1    1   -0.000000   -0.000000    0.000186    0.000000   -0.000078    0.000000
   -4   -3   -2    2    1    0.000107    0.000000   -0.000038   -0.000000    0.000187   -0.000000
   -4   -3   -2    1    2   -0.000184    0.000000    0.000142   -0.000000    0.000104    0.000000
   -4   -3   -2    2    2    0.000000   -0.000000   -0.000192    0.000000    0.000050    0.000000
   -4   -3   -1    1    1   -0.000000   -0.000000    0.000125   -0.000000   -0.000168   -0.000000
   -4   -3   -1    2    1    0.000181    0.000000   -0.000078   -0.000000    0.000136    0.000000
   -4   -3   -1    1    2   -0.000217   -0.000000    0.000183   -0.000000    0.000096   -0.000000
   -4   -3   -1    2    2    0.000000    0.000000   -0.000183   -0.000000    0.000101    0.000000
   -4   -3    0    1    1   -0.000000    0.000000    0.000260    0.000000    0.000000    0.000000
   -4   -3    0    2    1    0.000322   -0.000000   -0.000162   -0.000000    0.000049   -0.000000
   -4   -3    0    1    2   -0.000217    0.000000    0.000183    0.000000    0.000056    0.000000
   -4   -3    0    2    2    0.000000   -0.000000   -0.000386    0.000000   -0.000000   -0.000000
   -4   -3    1    1    1   -0.000000    0.000000    0.000125    0.000000    0.000168   -0.000000
   -4   -3    1    2    1    0.000322   -0.000000   -0.000162    0.000000    0.000016    0.000000
   -4   -3    1    1    2   -0.000184    0.000000    0.000142   -0.000000   -0.000005   -0.000000
   -4   -3    1    2    2    0.000000   -0.000000   -0.000183   -0.000000   -0.000101    0.000000
   -4   -3    2    1    1   -0.000000    0.000000    0.000186    0.000000    0.000078   -0.000000
   -4   -3    2    2    1    0.000181    0.000000   -0.000078    0.000000   -0.000065   -0.000000
   -4   -3    2    1    2   -0.000127   -0.000000    0.000107    0.000000   -0.000040    0.000000
   -4   -3    2    2    2    0.000000   -0.000000   -0.000192    0.000000   -0.000050   -0.000000
   -4   -3    3    1    1   -0.000000    0.000000    0.000039   -0.000000    0.000106    0.000000
   -4   -3    3    2    1    0.000107    0.000000   -0.000038   -0.000000   -0.000132    0.000000
   -4   -3    3    1    2   -0.000091   -0.000000    0.000095    0.000000   -0.000074   -0.000000
   -4   -3    3    2    2    0.000000    0.000000    0.000047   -0.000000   -0.000097    0.000000
   -4   -3    4    1    1    0.000000   -0.000000    0.000048    0.000000    0.000059   -0.000000
   -4   -3    4    2    1    0.000070   -0.000000    0.000006    0.000000   -0.000101   -0.000000
   -4   -3    4    1    2   -0.000031    0.000000    0.000064   -0.000000   -0.000123   -0.000000
   -4   -3    4    2    2   -0.000000   -0.000000    0.000091    0.000000   -0.000065   -0.000000
   -4   -3    5    1    1    0.000000    0.000000   -0.000037   -0.000000    0.000049   -0.000000
   -4   -3    5    2    1    0.000015   -0.000000    0.000056   -0.000000   -0.000036    0.000000
   -4   -3    5    1    2    0.000023   -0.000000    0.000019    0.000000   -0.000153    0.000000
   -4   -3    5    2    2   -0.000000    0.000000    0.000184    0.000000   -0.000052   -0.000000
   -4   -3    6    1    1    0.000000   -0.000000   -0.000064   -0.000000    0.000025    0.000000
   -4   -3    6    2    1   -0.000038    0.000000    0.000129    0.000000    0.000023    0.000000
   -4   -3    6    1    2    0.000059    0.000000   -0.000017    0.000000   -0.000089   -0.000000
   -4   -3    6    2    2   -0.000000    0.000000    0.000202   -0.000000   -0.000026    0.000000
   -4   -3    7    1    1    0.000000   -0.000000   -0.000081    0.000000    0.000000    0.000000
   -4   -3    7    2    1   -0.000070    0.000000    0.000181    0.000000    0.000017   -0.000000
   -4   -3    7    1    2    0.000059    0.000000   -0.000017   -0.000000    0.000046    0.000000
   -4   -3    7    2    2   -0.000000   -0.000000    0.000209    0.000000   -0.000000    0.000000
   -4   -2   -7    1    1    0.000007   -0.000000    0.000028   -0.000000    0.000000    0.000000
   -4   -2   -7    2    1    0.000005   -0.000000    0.000053   -0.000000    0.000005    0.000000
   -4   -2   -7    1    2    0.000000   -0.000000    0.000057    0.000000   -0.000052   -0.000000
   -4   -2   -7    2    2   -0.000002   -0.000000   -0.000069    0.000000   -0.000000   -0.000000
   -4   -2   -6    1    1    0.000008   -0.000000    0.000025   -0.000000    0.000003   -0.000000
   -4   -2   -6    2    1    0.000005   -0.000000    0.000053   -0.000000   -0.000008   -0.000000
   -4   -2   -6    1    2   -0.000000    0.000000    0.000014   -0.000000   -0.000100   -0.000000
   -4   -2   -6    2    2   -0.000004    0.000000   -0.000072   -0.000000   -0.000020   -0.000000
   -4   -2   -5    1    1    0.000009   -0.000000    0.000020    0.000000    0.000006    0.000000
   -4   -2   -5    2    1    0.000032   -0.000000    0.000012   -0.000000   -0.000029    0.000000
   -4   -2   -5    1    2   -0.000000    0.000000   -0.000048   -0.000000   -0.000090    0.000000
   -4   -2   -5    2    2   -0.000008   -0.000000   -0.000075   -0.000000   -0.000042    0.000000
   -4   -2   -4    1    1    0.000010    0.000000    0.000016   -0.000000    0.000009   -0.000000
   -4   -2   -4    2    1    0.000048    0.000000   -0.000028   -0.000000   -0.000088   -0.000000
   -4   -2   -4    1    2   -0.000000   -0.000000   -0.000091    0.000000   -0.000034    0.000000
   -4   -2   -4    2    2   -0.000010   -0.000000   -0.000064   -0.000000   -0.000060   -0.000000
   -4   -2   -3    1    1    0.000010   -0.000000    0.000019    0.000000    0.000016    0.000000
   -4   -2   -3    2    1    0.000028    0.000000   -0.000036    0.000000   -0.000095    0.000000
   -4   -2   -3    1    2   -0.000000    0.000000   -0.000087    0.000000    0.000017    0.000000
   -4   -2   -3    2    2   -0.000007    0.000000   -0.000035    0.000000   -0.000057    0.000000
   -4   -2   -2    1    1    0.000010   -0.000000    0.000023    0.000000    0.000025    0.000000
   -4   -2   -2    2    1   -0.000060   -0.000000    0.000027   -0.000000   -0.000054   -0.000000
   -4   -2   -2    1    2   -0.000000   -0.000000   -0.000042   -0.000000    0.000037   -0.000000
   -4   -2   -2    2    2    0.000002   -0.000000    0.000002   -0.000000   -0.000025   -0.000000
   -4   -2   -1    1    1    0.000009   -0.000000    0.000025   -0.000000    0.000018   -0.000000
   -4   -2   -1    2    1   -0.000076    0.000000    0.000073   -0.000000    0.000027   -0.000000
   -4   -2   -1    1    2   -0.000000    0.000000    0.000002    0.000000    0.000035   -0.000000
   -4   -2   -1    2    2    0.000011   -0.000000    0.000023    0.000000    0.000002    0.000000
   -4   -2    0    1    1    0.000010    0.000000    0.000021    0.000000   -0.000000    0.000000
   -4   -2    0    2    1   -0.000236   -0.000000    0.000072    0.000000    0.000050    0.000000
   -4   -2    0    1    2   -0.000000    0.000000    0.000002   -0.000000    0.000030   -0.000000
   -4   -2    0    2    2    0.000015    0.000000    0.000031    0.000000    0.000000    0.000000
   -4   -2    1    1    1    0.000009    0.000000    0.000025   -0.000000   -0.000018    0.000000
   -4   -2    1    2    1   -0.000236    0.000000    0.000072    0.000000   -0.000062   -0.000000
   -4   -2    1    1    2   -0.000000   -0.000000   -0.000042   -0.000000    0.000010    0.000000
   -4   -2    1    2    2    0.000011   -0.000000    0.000023   -0.000000   -0.000002    0.000000
   -4   -2    2    1    1    0.000010   -0.000000    0.000023    0.000000   -0.000025   -0.000000
   -4   -2    2    2    1   -0.000076   -0.000000    0.000073    0.000000   -0.000047    0.000000
   -4   -2    2    1    2   -0.000000    0.000000   -0.000087    0.000000   -0.000011   -0.000000
   -4   -2    2    2    2    0.000002    0.000000    0.000002    0.000000    0.000025    0.000000
   -4   -2    3    1    1    0.000010   -0.000000    0.000019    0.000000   -0.000016    0.000000
   -4   -2    3    2    1   -0.000060    0.000000    0.000027    0.000000    0.000028   -0.000000
   -4   -2    3    1    2   -0.000000    0.000000   -0.000091    0.000000   -0.000006   -0.000000
   -4   -2    3    2    2   -0.000007   -0.000000   -0.000035   -0.000000    0.000057    0.000000
   -4   -2    4    1    1    0.000010    0.000000    0.000016    0.000000   -0.000009   -0.000000
   -4   -2    4    2    1    0.000028    0.000000   -0.000036   -0.000000    0.000081    0.000000
   -4   -2    4    1    2   -0.000000   -0.000000   -0.000048    0.000000    0.000026    0.000000
   -4   -2    4    2    2   -0.000010   -0.000000   -0.000064   -0.000000    0.000060    0.000000
   -4   -2    5    1    1    0.000009   -0.000000    0.000020   -0.000000   -0.000006   -0.000000
   -4   -2    5    2    1    0.000048    0.000000   -0.000028    0.000000    0.000082   -0.000000
   -4   -2    5    1    2   -0.000000    0.000000    0.000014    0.000000    0.000045    0.000000
   -4   -2    5    2    2   -0.000008    0.000000   -0.000075    0.000000    0.000042   -0.000000
   -4   -2    6    1    1    0.000008   -0.000000    0.000025   -0.000000   -0.000003    0.000000
   -4   -2    6    2    1    0.000032   -0.000000    0.000012    0.000000    0.000028   -0.000000
   -4   -2    6    1    2    0.000000   -0.000000    0.000057   -0.000000    0.000015    0.000000
   -4   -2    6    2    2   -0.000004    0.000000   -0.000072    0.000000    0.000020   -0.000000
   -4   -2    7    1    1    0.000007   -0.000000    0.000028   -0.000000   -0.000000    0.000000
   -4   -2    7    2    1    0.000005   -0.000000    0.000053   -0.000000    0.000005    0.000000
   -4   -2    7    1    2    0.000000   -0.000000    0.000057    0.000000   -0.000052   -0.000000
   -4   -2    7    2    2   -0.000002   -0.000000   -0.000069    0.000000    0.000000    0.000000
   -4   -1   -7    1    1    0.000007   -0.000000    0.000003    0.000000    0.000000   -0.000000
   -4   -1   -7    2    1   -0.000009   -0.000000   -0.000078    0.000000    0.000107   -0.000000
   -4   -1   -7    1    2    0.000007    0.000000   -0.000012    0.000000    0.000040   -0.000000
   -4   -1   -7    2    2   -0.000014    0.000000   -0.000008   -0.000000   -0.000000   -0.000000
   -4   -1   -6    1    1    0.000006   -0.000000    0.000002   -0.000000    0.000002    0.000000
   -4   -1   -6    2    1   -0.000009   -0.000000   -0.000078   -0.000000   -0.000092   -0.000000
   -4   -1   -6    1    2   -0.000003   -0.000000    0.000002   -0.000000    0.000104    0.000000
   -4   -1   -6    2    2   -0.000010   -0.000000   -0.000005   -0.000000   -0.000003   -0.000000
   -4   -1   -5    1    1    0.000002    0.000000    0.000001   -0.000000   -0.000000   -0.000000
   -4   -1   -5    2    1   -0.000004    0.000000   -0.000061   -0.000000   -0.000259    0.000000
   -4   -1   -5    1    2   -0.000017   -0.000000    0.000022    0.000000    0.000134   -0.000000
   -4   -1   -5    2    2   -0.000002   -0.000000    0.000001   -0.000000    0.000005    0.000000
   -4   -1   -4    1    1   -0.000002   -0.000000    0.000000    0.000000   -0.000000    0.000000
   -4   -1   -4    2    1    0.000001    0.000000   -0.000034    0.000000   -0.000351    0.000000
   -4   -1   -4    1    2   -0.000024    0.000000    0.000033    0.000000    0.000105    0.000000
   -4   -1   -4    2    2    0.000008    0.000000    0.000005    0.000000    0.000014    0.000000
   -4   -1   -3    1    1   -0.000006   -0.000000    0.000001   -0.000000    0.000010   -0.000000
   -4   -1   -3    2    1    0.000006   -0.000000   -0.000009   -0.000000   -0.000298   -0.000000
   -4   -1   -3    1    2   -0.000019   -0.000000    0.000029    0.000000    0.000021    0.000000
   -4   -1   -3    2    2    0.000013    0.000000    0.000003   -0.000000   -0.000000   -0.000000
   -4   -1   -2    1    1   -0.000010    0.000000   -0.000000   -0.000000    0.000026   -0.000000
   -4   -1   -2    2    1   -0.000001    0.000000    0.000007    0.000000   -0.000171    0.000000
   -4   -1   -2    1    2   -0.000007    0.000000    0.000011   -0.000000   -0.000063   -0.000000
   -4   -1   -2    2    2    0.000012    0.000000    0.000001   -0.000000   -0.000034   -0.000000
   -4   -1   -1    1    1   -0.000010    0.000000   -0.000003    0.000000    0.000027    0.000000
   -4   -1   -1    2    1    0.000006   -0.000000    0.000005    0.000000   -0.000041    0.000000
   -4   -1   -1    1    2    0.000003    0.000000   -0.000006    0.000000   -0.000098    0.000000
   -4   -1   -1    2    2    0.000008    0.000000    0.000002    0.000000   -0.000043    0.000000
   -4   -1    0    1    1   -0.000011   -0.000000   -0.000004   -0.000000   -0.000000    0.000000
   -4   -1    0    2    1   -0.000003    0.000000    0.000006   -0.000000    0.000006   -0.000000
   -4   -1    0    1    2    0.000003   -0.000000   -0.000006    0.000000   -0.000080   -0.000000
   -4   -1    0    2    2    0.000006   -0.000000    0.000003   -0.000000    0.000000    0.000000
   -4   -1    1    1    1   -0.000010    0.000000   -0.000003    0.000000   -0.000027   -0.000000
   -4   -1    1    2    1   -0.000003   -0.000000    0.000006   -0.000000   -0.000008    0.000000
   -4   -1    1    1    2   -0.000007   -0.000000    0.000011   -0.000000   -0.000051    0.000000
   -4   -1    1    2    2    0.000008    0.000000    0.000002    0.000000    0.000043   -0.000000
   -4   -1    2    1    1   -0.000010   -0.000000   -0.000000   -0.000000   -0.000026    0.000000
   -4   -1    2    2    1    0.000006    0.000000    0.000005    0.000000    0.000014   -0.000000
   -4   -1    2    1    2   -0.000019    0.000000    0.000029    0.000000   -0.000053   -0.000000
   -4   -1    2    2    2    0.000012   -0.000000    0.000001   -0.000000    0.000034   -0.000000
   -4   -1    3    1    1   -0.000006    0.000000    0.000001   -0.000000   -0.000010    0.000000
   -4   -1    3    2    1   -0.000001   -0.000000    0.000007   -0.000000    0.000117    0.000000
   -4   -1    3    1    2   -0.000024   -0.000000    0.000033   -0.000000   -0.000082    0.000000
   -4   -1    3    2    2    0.000013    0.000000    0.000003   -0.000000    0.000000    0.000000
   -4   -1    4    1    1   -0.000002   -0.000000    0.000000   -0.000000    0.000000    0.000000
   -4   -1    4    2    1    0.000006   -0.000000   -0.000009   -0.000000    0.000242    0.000000
   -4   -1    4    1    2   -0.000017    0.000000    0.000022   -0.000000   -0.000101    0.000000
   -4   -1    4    2    2    0.000008    0.000000    0.000005    0.000000   -0.000014   -0.000000
   -4   -1    5    1    1    0.000002    0.000000    0.000001    0.000000    0.000000   -0.000000
   -4   -1    5    2    1    0.000001    0.000000   -0.000034    0.000000    0.000315   -0.000000
   -4   -1    5    1    2   -0.000003   -0.000000    0.000002   -0.000000   -0.000083   -0.000000
   -4   -1    5    2    2   -0.000002    0.000000    0.000001    0.000000   -0.000005   -0.000000
   -4   -1    6    1    1    0.000006   -0.000000    0.000002   -0.000000   -0.000002    0.000000
   -4   -1    6    2    1   -0.000004    0.000000   -0.000061   -0.000000    0.000255    0.000000
   -4   -1    6    1    2    0.000007   -0.000000   -0.000012   -0.000000   -0.000029    0.000000
   -4   -1    6    2    2   -0.000010   -0.000000   -0.000005   -0.000000    0.000003    0.000000
   -4   -1    7    1    1    0.000007   -0.000000    0.000003    0.000000   -0.000000    0.000000
   -4   -1    7    2    1   -0.000009   -0.000000   -0.000078    0.000000    0.000107   -0.000000
   -4   -1    7    1    2    0.000007    0.000000   -0.000012    0.000000    0.000040   -0.000000
   -4   -1    7    2    2   -0.000014    0.000000   -0.000008   -0.000000    0.000000    0.000000
   -3   -4   -7    1    1   -0.000000    0.000000   -0.000081   -0.000000    0.000000    0.000000
   -3   -4   -7    2    1   -0.000033    0.000000   -0.000141    0.000000   -0.000046    0.000000
   -3   -4   -7    1    2    0.000043   -0.000000    0.000070   -0.000000   -0.000017   -0.000000
   -3   -4   -7    2    2    0.000000    0.000000    0.000209   -0.000000   -0.000000    0.000000
   -3   -4   -6    1    1   -0.000000    0.000000   -0.000064    0.000000    0.000025   -0.000000
   -3   -4   -6    2    1   -0.000033    0.000000   -0.000141   -0.000000    0.000064   -0.000000
   -3   -4   -6    1    2    0.000020    0.000000    0.000035    0.000000   -0.000033    0.000000
   -3   -4   -6    2    2    0.000000   -0.000000    0.000202    0.000000   -0.000026   -0.000000
   -3   -4   -5    1    1   -0.000000   -0.000000   -0.000037    0.000000    0.000049    0.000000
   -3   -4   -5    2    1   -0.000011   -0.000000   -0.000091   -0.000000    0.000119    0.000000
   -3   -4   -5    1    2   -0.000019   -0.000000   -0.000011    0.000000    0.000044    0.000000
   -3   -4   -5    2    2    0.000000   -0.000000    0.000184   -0.000000   -0.000052    0.000000
   -3   -4   -4    1    1   -0.000000    0.000000    0.000048   -0.000000    0.000059    0.000000
   -3   -4   -4    2    1    0.000022    0.000000   -0.000020    0.000000    0.000073   -0.000000
   -3   -4   -4    1    2   -0.000058   -0.000000   -0.000033    0.000000    0.000148   -0.000000
   -3   -4   -4    2    2    0.000000    0.000000    0.000091   -0.000000   -0.000065    0.000000
   -3   -4   -3    1    1    0.000000   -0.000000    0.000039    0.000000    0.000106   -0.000000
   -3   -4   -3    2    1    0.000059   -0.000000    0.000050    0.000000    0.000020    0.000000
   -3   -4   -3    1    2   -0.000088    0.000000   -0.000049   -0.000000    0.000222   -0.000000
   -3   -4   -3    2    2   -0.000000   -0.000000    0.000047    0.000000   -0.000097   -0.000000
   -3   -4   -2    1    1    0.000000   -0.000000    0.000186   -0.000000    0.000078    0.000000
   -3   -4   -2    2    1    0.000080   -0.000000    0.000102   -0.000000    0.000027   -0.000000
   -3   -4   -2    1    2   -0.000147    0.000000   -0.000018    0.000000    0.000212    0.000000
   -3   -4   -2    2    2   -0.000000    0.000000   -0.000192   -0.000000   -0.000050    0.000000
   -3   -4   -1    1    1    0.000000   -0.000000    0.000125   -0.000000    0.000168    0.000000
   -3   -4   -1    2    1    0.000114    0.000000    0.000178    0.000000    0.000065    0.000000
   -3   -4   -1    1    2   -0.000255   -0.000000    0.000008    0.000000    0.000141   -0.000000
   -3   -4   -1    2    2   -0.000000    0.000000   -0.000183    0.000000   -0.000101   -0.000000
   -3   -4    0    1    1    0.000000   -0.000000    0.000260   -0.000000    0.000000   -0.000000
   -3   -4    0    2    1    0.000132    0.000000    0.000245   -0.000000    0.000056   -0.000000
   -3   -4    0    1    2   -0.000255   -0.000000    0.000008   -0.000000    0.000049    0.000000
   -3   -4    0    2    2   -0.000000    0.000000   -0.000386   -0.000000   -0.000000    0.000000
   -3   -4    1    1    1    0.000000    0.000000    0.000125    0.000000   -0.000168    0.000000
   -3   -4    1    2    1    0.000132   -0.000000    0.000245   -0.000000   -0.000005    0.000000
   -3   -4    1    1    2   -0.000147    0.000000   -0.000018    0.000000   -0.000008   -0.000000
   -3   -4    1    2    2   -0.000000   -0.000000   -0.000183    0.000000    0.000101   -0.000000
   -3   -4    2    1    1    0.000000    0.000000    0.000186   -0.000000   -0.000078   -0.000000
   -3   -4    2    2    1    0.000114   -0.000000    0.000178    0.000000   -0.000031    0.000000
   -3   -4    2    1    2   -0.000088    0.000000   -0.000049   -0.000000   -0.000057    0.000000
   -3   -4    2    2    2   -0.000000    0.000000   -0.000192   -0.000000    0.000050   -0.000000
   -3   -4    3    1    1    0.000000    0.000000    0.000039    0.000000   -0.000106    0.000000
   -3   -4    3    2    1    0.000080    0.000000    0.000102    0.000000   -0.000010   -0.000000
   -3   -4    3    1    2   -0.000058   -0.000000   -0.000033   -0.000000   -0.000072    0.000000
   -3   -4    3    2    2   -0.000000   -0.000000    0.000047    0.000000    0.000097    0.000000
   -3   -4    4    1    1   -0.000000    0.000000    0.000048   -0.000000   -0.000059   -0.000000
   -3   -4    4    2    1    0.000059   -0.000000    0.000050    0.000000   -0.000002    0.000000
   -3   -4    4    1    2   -0.000019   -0.000000   -0.000011    0.000000   -0.000027    0.000000
   -3   -4    4    2    2    0.000000    0.000000    0.000091    0.000000    0.000065    0.000000
   -3   -4    5    1    1   -0.000000    0.000000   -0.000037    0.000000   -0.000049    0.000000
   -3   -4    5    2    1    0.000022   -0.000000   -0.000020    0.000000   -0.000047   -0.000000
   -3   -4    5    1    2    0.000020    0.000000    0.000035   -0.000000    0.000034    0.000000
   -3   -4    5    2    2    0.000000    0.000000    0.000184    0.000000    0.000052    0.000000
   -3   -4    6    1    1   -0.000000   -0.000000   -0.000064   -0.000000   -0.000025   -0.000000
   -3   -4    6    2    1   -0.000011   -0.000000   -0.000091   -0.000000   -0.000093    0.000000
   -3   -4    6    1    2    0.000043   -0.000000    0.000070    0.000000    0.000031   -0.000000
   -3   -4    6    2    2    0.000000   -0.000000    0.000202    0.000000    0.000026    0.000000
   -3   -4    7    1    1   -0.000000    0.000000   -0.000081   -0.000000   -0.000000    0.000000
   -3   -4    7    2    1   -0.000033    0.000000   -0.000141    0.000000   -0.000046    0.000000
   -3   -4    7    1    2    0.000043   -0.000000    0.000070   -0.000000   -0.000017   -0.000000
   -3   -4    7    2    2    0.000000    0.000000    0.000209   -0.000000    0.000000    0.000000
   -3   -3   -7    1    1    0.000000    0.000000   -0.000090    0.000000    0.000000   -0.000000
   -3   -3   -7    2    1    0.000031    0.000000   -0.000108    0.000000    0.000199    0.000000
   -3   -3   -7    1    2   -0.000000    0.000000   -0.000025    0.000000    0.000081    0.000000
   -3   -3   -7    2    2    0.000000    0.000000   -0.000499   -0.000000    0.000000   -0.000000
   -3   -3   -6    1    1    0.000000   -0.000000   -0.000069   -0.000000   -0.000000    0.000000
   -3   -3   -6    2    1    0.000031   -0.000000   -0.000108   -0.000000   -0.000214    0.000000
   -3   -3   -6    1    2    0.000000    0.000000    0.000036   -0.000000    0.000271   -0.000000
   -3   -3   -6    2    2   -0.000000    0.000000   -0.000386   -0.000000    0.000000   -0.000000
   -3   -3   -5    1    1    0.000000   -0.000000   -0.000030    0.000000   -0.000000    0.000000
   -3   -3   -5    2    1   -0.000027    0.000000   -0.000030   -0.000000   -0.000515   -0.000000
   -3   -3   -5    1    2   -0.000000   -0.000000    0.000123    0.000000    0.000415   -0.000000
   -3   -3   -5    2    2   -0.000000    0.000000   -0.000114    0.000000    0.000000   -0.000000
   -3   -3   -4    1    1    0.000000    0.000000    0.000004    0.000000   -0.000000   -0.000000
   -3   -3   -4    2    1   -0.000104   -0.000000    0.000070    0.000000   -0.000585   -0.000000
   -3   -3   -4    1    2   -0.000000    0.000000    0.000191   -0.000000    0.000377    0.000000
   -3   -3   -4    2    2   -0.000000    0.000000    0.000153    0.000000    0.000000   -0.000000
   -3   -3   -3    1    1    0.000000    0.000000   -0.000166   -0.000000   -0.000000   -0.000000
   -3   -3   -3    2    1   -0.000141   -0.000000    0.000119    0.000000   -0.000386   -0.000000
   -3   -3   -3    1    2   -0.000000   -0.000000    0.000204   -0.000000    0.000312   -0.000000
   -3   -3   -3    2    2   -0.000000   -0.000000    0.000429   -0.000000    0.000000    0.000000
   -3   -3   -2    1    1    0.000000    0.000000   -0.000385   -0.000000   -0.000000   -0.000000
   -3   -3   -2    2    1   -0.000191    0.000000    0.000064    0.000000   -0.000249   -0.000000
   -3   -3   -2    1    2   -0.000000    0.000000    0.000197    0.000000    0.000175    0.000000
   -3   -3   -2    2    2   -0.000000    0.000000    0.000542    0.000000    0.000000   -0.000000
   -3   -3   -1    1    1    0.000000   -0.000000   -0.000792   -0.000000   -0.000000    0.000000
   -3   -3   -1    2    1   -0.000196   -0.000000   -0.000079   -0.000000    0.000005   -0.000000
   -3   -3   -1    1    2   -0.000000    0.000000    0.000170   -0.000000    0.000007    0.000000
   -3   -3   -1    2    2   -0.000000    0.000000    0.000768    0.000000    0.000000   -0.000000
   -3   -3    0    1    1   -0.000000   -0.000000   -0.000722   -0.000000   -0.000000    0.000000
   -3   -3    0    2    1   -0.000260    0.000000   -0.000212    0.000000   -0.000025   -0.000000
   -3   -3    0    1    2   -0.000000   -0.000000    0.000170   -0.000000   -0.000075   -0.000000
   -3   -3    0    2    2   -0.000000   -0.000000    0.000675    0.000000    0.000000    0.000000
   -3   -3    1    1    1   -0.000000    0.000000   -0.000792    0.000000   -0.000000    0.000000
   -3   -3    1    2    1   -0.000260    0.000000   -0.000212   -0.000000    0.000022   -0.000000
   -3   -3    1    1    2   -0.000000   -0.000000    0.000197    0.000000   -0.000220    0.000000
   -3   -3    1    2    2    0.000000   -0.000000    0.000768   -0.000000    0.000000   -0.000000
   -3   -3    2    1    1   -0.000000    0.000000   -0.000385   -0.000000   -0.000000    0.000000
   -3   -3    2    2    1   -0.000196   -0.000000   -0.000079   -0.000000   -0.000049    0.000000
   -3   -3    2    1    2   -0.000000    0.000000    0.000204    0.000000   -0.000260   -0.000000
   -3   -3    2    2    2    0.000000   -0.000000    0.000542   -0.000000    0.000000   -0.000000
   -3   -3    3    1    1   -0.000000    0.000000   -0.000166   -0.000000   -0.000000    0.000000
   -3   -3    3    2    1   -0.000191    0.000000    0.000064   -0.000000    0.000155   -0.000000
   -3   -3    3    1    2   -0.000000   -0.000000    0.000191   -0.000000   -0.000310    0.000000
   -3   -3    3    2    2    0.000000    0.000000    0.000429    0.000000    0.000000    0.000000
   -3   -3    4    1    1   -0.000000   -0.000000    0.000004    0.000000   -0.000000   -0.000000
   -3   -3    4    2    1   -0.000141    0.000000    0.000119    0.000000    0.000298    0.000000
   -3   -3    4    1    2   -0.000000    0.000000    0.000123    0.000000   -0.000353    0.000000
   -3   -3    4    2    2    0.000000   -0.000000    0.000153   -0.000000    0.000000   -0.000000
   -3   -3    5    1    1   -0.000000    0.000000   -0.000030   -0.000000   -0.000000    0.000000
   -3   -3    5    2    1   -0.000104   -0.000000    0.000070   -0.000000    0.000500    0.000000
   -3   -3    5    1    2   -0.000000   -0.000000    0.000036   -0.000000   -0.000271   -0.000000
   -3   -3    5    2    2    0.000000    0.000000   -0.000114   -0.000000    0.000000    0.000000
   -3   -3    6    1    1   -0.000000    0.000000   -0.000069    0.000000   -0.000000    0.000000
   -3   -3    6    2    1   -0.000027   -0.000000   -0.000030   -0.000000    0.000467   -0.000000
   -3   -3    6    1    2   -0.000000   -0.000000   -0.000025   -0.000000   -0.000119   -0.000000
   -3   -3    6    2    2    0.000000    0.000000   -0.000386    0.000000    0.000000    0.000000
   -3   -3    7    1    1    0.000000    0.000000   -0.000090    0.000000    0.000000    0.000000
   -3   -3    7    2    1    0.000031    0.000000   -0.000108    0.000000    0.000199    0.000000
   -3   -3    7    1    2   -0.000000    0.000000   -0.000025    0.000000    0.000081    0.000000
   -3   -3    7    2    2    0.000000    0.000000   -0.000499   -0.000000    0.000000    0.000000
   -3   -2   -7    1    1   -0.000008   -0.000000    0.000094   -0.000000   -0.000000   -0.000000
   -3   -2   -7    2    1   -0.000098   -0.000000   -0.000111   -0.000000   -0.000196   -0.000000
   -3   -2   -7    1    2   -0.000059   -0.000000   -0.000017   -0.000000    0.000046   -0.000000
   -3   -2   -7    2    2    0.000004   -0.000000   -0.000102   -0.000000    0.000000   -0.000000
   -3   -2   -6    1    1   -0.000012    0.000000    0.000096    0.000000    0.000014    0.000000
   -3   -2   -6    2    1   -0.000098    0.000000   -0.000111    0.000000    0.000198    0.000000
   -3   -2   -6    1    2   -0.000023    0.000000    0.000019    0.000000    0.000138   -0.000000
   -3   -2   -6    2    2    0.000014   -0.000000   -0.000104   -0.000000   -0.000016   -0.000000
   -3   -2   -5    1    1   -0.000015   -0.000000    0.000122   -0.000000    0.000039   -0.000000
   -3   -2   -5    2    1   -0.000049   -0.000000   -0.000128   -0.000000    0.000509   -0.000000
   -3   -2   -5    1    2    0.000031    0.000000    0.000064   -0.000000    0.000125    0.000000
   -3   -2   -5    2    2    0.000029    0.000000   -0.000125    0.000000   -0.000044    0.000000
   -3   -2   -4    1    1   -0.000016    0.000000    0.000094    0.000000    0.000056    0.000000
   -3   -2   -4    2    1    0.000018    0.000000   -0.000129    0.000000    0.000531   -0.000000
   -3   -2   -4    1    2    0.000091   -0.000000    0.000095   -0.000000    0.000081   -0.000000
   -3   -2   -4    2    2    0.000038   -0.000000   -0.000114   -0.000000   -0.000076    0.000000
   -3   -2   -3    1    1    0.000020   -0.000000    0.000171   -0.000000    0.000097    0.000000
   -3   -2   -3    2    1    0.000055    0.000000   -0.000091   -0.000000    0.000338    0.000000
   -3   -2   -3    1    2    0.000127    0.000000    0.000107   -0.000000    0.000072    0.000000
   -3   -2   -3    2    2   -0.000015    0.000000   -0.000207   -0.000000   -0.000118   -0.000000
   -3   -2   -2    1    1    0.000021    0.000000   -0.000074   -0.000000   -0.000100   -0.000000
   -3   -2   -2    2    1    0.000027    0.000000    0.000128   -0.000000   -0.000017   -0.000000
   -3   -2   -2    1    2    0.000184   -0.000000    0.000142    0.000000    0.000104    0.000000
   -3   -2   -2    2    2   -0.000028   -0.000000    0.000021    0.000000    0.000071    0.000000
   -3   -2   -1    1    1    0.000071   -0.000000    0.000097   -0.000000   -0.000034    0.000000
   -3   -2   -1    2    1   -0.000060   -0.000000    0.000151    0.000000   -0.000129    0.000000
   -3   -2   -1    1    2    0.000217    0.000000    0.000183   -0.000000    0.000096   -0.000000
   -3   -2   -1    2    2   -0.000148   -0.000000   -0.000251   -0.000000    0.000024   -0.000000
   -3   -2    0    1    1   -0.000010    0.000000   -0.000040    0.000000   -0.000000   -0.000000
   -3   -2    0    2    1    0.000129   -0.000000    0.000278    0.000000   -0.000223    0.000000
   -3   -2    0    1    2    0.000217   -0.000000    0.000183    0.000000    0.000056    0.000000
   -3   -2    0    2    2   -0.000058    0.000000   -0.000092    0.000000   -0.000000    0.000000
   -3   -2    1    1    1    0.000071   -0.000000    0.000097   -0.000000    0.000034    0.000000
   -3   -2    1    2    1    0.000129   -0.000000    0.000278    0.000000    0.000120   -0.000000
   -3   -2    1    1    2    0.000184   -0.000000    0.000142    0.000000   -0.000005   -0.000000
   -3   -2    1    2    2   -0.000148   -0.000000   -0.000251    0.000000   -0.000024   -0.000000
   -3   -2    2    1    1    0.000021   -0.000000   -0.000074    0.000000    0.000100   -0.000000
   -3   -2    2    2    1   -0.000060   -0.000000    0.000151    0.000000    0.000081   -0.000000
   -3   -2    2    1    2    0.000127   -0.000000    0.000107   -0.000000   -0.000040    0.000000
   -3   -2    2    2    2   -0.000028   -0.000000    0.000021   -0.000000   -0.000071   -0.000000
   -3   -2    3    1    1    0.000020   -0.000000    0.000171   -0.000000   -0.000097    0.000000
   -3   -2    3    2    1    0.000027    0.000000    0.000128   -0.000000    0.000038    0.000000
   -3   -2    3    1    2    0.000091    0.000000    0.000095   -0.000000   -0.000074    0.000000
   -3   -2    3    2    2   -0.000015    0.000000   -0.000207    0.000000    0.000118   -0.000000
   -3   -2    4    1    1   -0.000016    0.000000    0.000094    0.000000   -0.000056   -0.000000
   -3   -2    4    2    1    0.000055   -0.000000   -0.000091   -0.000000   -0.000251    0.000000
   -3   -2    4    1    2    0.000031    0.000000    0.000064    0.000000   -0.000123   -0.000000
   -3   -2    4    2    2    0.000038   -0.000000   -0.000114   -0.000000    0.000076    0.000000
   -3   -2    5    1    1   -0.000015   -0.000000    0.000122   -0.000000   -0.000039   -0.000000
   -3   -2    5    2    1    0.000018   -0.000000   -0.000129    0.000000   -0.000452   -0.000000
   -3   -2    5    1    2   -0.000023   -0.000000    0.000019   -0.000000   -0.000153    0.000000
   -3   -2    5    2    2    0.000029    0.000000   -0.000125    0.000000    0.000044   -0.000000
   -3   -2    6    1    1   -0.000012    0.000000    0.000096    0.000000   -0.000014   -0.000000
   -3   -2    6    2    1   -0.000049   -0.000000   -0.000128   -0.000000   -0.000470    0.000000
   -3   -2    6    1    2   -0.000059    0.000000   -0.000017    0.000000   -0.000089    0.000000
   -3   -2    6    2    2    0.000014   -0.000000   -0.000104    0.000000    0.000016   -0.000000
   -3   -2    7    1    1   -0.000008   -0.000000    0.000094   -0.000000    0.000000    0.000000
   -3   -2    7    2    1   -0.000098   -0.000000   -0.000111   -0.000000   -0.000196   -0.000000
   -3   -2    7    1    2   -0.000059   -0.000000   -0.000017   -0.000000    0.000046   -0.000000
   -3   -2    7    2    2    0.000004   -0.000000   -0.000102   -0.000000   -0.000000    0.000000
   -3   -1   -7    1    1   -0.000030    0.000000    0.000004    0.000000    0.000000   -0.000000
   -3   -1   -7    2    1   -0.000037    0.000000    0.000109    0.000000   -0.000195    0.000000
   -3   -1   -7    1    2   -0.000029    0.000000    0.000068   -0.000000   -0.000019    0.000000
   -3   -1   -7    2    2    0.000063    0.000000    0.000143    0.000000    0.000000   -0.000000
   -3   -1   -6    1    1   -0.000024   -0.000000   -0.000001   -0.000000    0.000005   -0.000000
   -3   -1   -6    2    1   -0.000037    0.000000    0.000109   -0.000000    0.000198   -0.000000
   -3   -1   -6    1    2   -0.000028    0.000000    0.000024    0.000000   -0.000046    0.000000
   -3   -1   -6    2    2    0.000049    0.000000    0.000119   -0.000000    0.000028   -0.000000
   -3   -1   -5    1    1   -0.000012   -0.000000   -0.000011   -0.000000   -0.000000    0.000000
   -3   -1   -5    2    1   -0.000006    0.000000    0.000063   -0.000000    0.000561   -0.000000
   -3   -1   -5    1    2   -0.000029   -0.000000   -0.000035   -0.000000   -0.000031   -0.000000
   -3   -1   -5    2    2    0.000015   -0.000000    0.000064    0.000000    0.000035    0.000000
   -3   -1   -4    1    1   -0.000003    0.000000   -0.000024    0.000000   -0.000017   -0.000000
   -3   -1   -4    2    1    0.000023   -0.000000   -0.000012    0.000000    0.000801    0.000000
   -3   -1   -4    1    2   -0.000036   -0.000000   -0.000069    0.000000    0.000002   -0.000000
   -3   -1   -4    2    2   -0.000023    0.000000    0.000010    0.000000    0.000020    0.000000
   -3   -1   -3    1    1   -0.000009    0.000000   -0.000033    0.000000   -0.000037    0.000000
   -3   -1   -3    2    1    0.000017   -0.000000   -0.000085   -0.000000    0.000771   -0.000000
   -3   -1   -3    1    2   -0.000046    0.000000   -0.000052   -0.000000    0.000015   -0.000000
   -3   -1   -3    2    2   -0.000044   -0.000000   -0.000013    0.000000    0.000013    0.000000
   -3   -1   -2    1    1   -0.000015    0.000000   -0.000029    0.000000   -0.000050    0.000000
   -3   -1   -2    2    1   -0.000012    0.000000   -0.000151    0.000000    0.000593    0.000000
   -3   -1   -2    1    2   -0.000053   -0.000000    0.000005    0.000000    0.000001    0.000000
   -3   -1   -2    2    2   -0.000051    0.000000   -0.000019   -0.000000    0.000021   -0.000000
   -3   -1   -1    1    1   -0.000031    0.000000   -0.000020   -0.000000   -0.000016   -0.000000
   -3   -1   -1    2    1   -0.000055   -0.000000   -0.000091    0.000000    0.000305    0.000000
   -3   -1   -1    1    2   -0.000058   -0.000000    0.000056    0.000000   -0.000005   -0.000000
   -3   -1   -1    2    2   -0.000035   -0.000000   -0.000014   -0.000000    0.000028    0.000000
   -3   -1    0    1    1   -0.000004    0.000000   -0.000001    0.000000   -0.000000    0.000000
   -3   -1    0    2    1    0.000073    0.000000   -0.000035   -0.000000    0.000179   -0.000000
   -3   -1    0    1    2   -0.000058    0.000000    0.000056   -0.000000    0.000005   -0.000000
   -3   -1    0    2    2   -0.000048    0.000000   -0.000028   -0.000000    0.000000    0.000000
   -3   -1    1    1    1   -0.000031    0.000000   -0.000020   -0.000000    0.000016    0.000000
   -3   -1    1    2    1    0.000073   -0.000000   -0.000035    0.000000   -0.000076   -0.000000
   -3   -1    1    1    2   -0.000053    0.000000    0.000005    0.000000    0.000015    0.000000
   -3   -1    1    2    2   -0.000035   -0.000000   -0.000014    0.000000   -0.000028   -0.000000
   -3   -1    2    1    1   -0.000015   -0.000000   -0.000029    0.000000    0.000050   -0.000000
   -3   -1    2    2    1   -0.000055    0.000000   -0.000091   -0.000000   -0.000161    0.000000
   -3   -1    2    1    2   -0.000046    0.000000   -0.000052   -0.000000    0.000008    0.000000
   -3   -1    2    2    2   -0.000051    0.000000   -0.000019   -0.000000   -0.000021    0.000000
   -3   -1    3    1    1   -0.000009   -0.000000   -0.000033   -0.000000    0.000037    0.000000
   -3   -1    3    2    1   -0.000012   -0.000000   -0.000151    0.000000   -0.000383   -0.000000
   -3   -1    3    1    2   -0.000036   -0.000000   -0.000069   -0.000000    0.000006    0.000000
   -3   -1    3    2    2   -0.000044    0.000000   -0.000013    0.000000   -0.000013   -0.000000
   -3   -1    4    1    1   -0.000003   -0.000000   -0.000024    0.000000    0.000017   -0.000000
   -3   -1    4    2    1    0.000017   -0.000000   -0.000085    0.000000   -0.000585   -0.000000
   -3   -1    4    1    2   -0.000029    0.000000   -0.000035    0.000000    0.000024   -0.000000
   -3   -1    4    2    2   -0.000023    0.000000    0.000010   -0.000000   -0.000020    0.000000
   -3   -1    5    1    1   -0.000012   -0.000000   -0.000011   -0.000000    0.000000    0.000000
   -3   -1    5    2    1    0.000023    0.000000   -0.000012   -0.000000   -0.000676    0.000000
   -3   -1    5    1    2   -0.000028   -0.000000    0.000024   -0.000000    0.000042   -0.000000
   -3   -1    5    2    2    0.000015    0.000000    0.000064    0.000000   -0.000035   -0.000000
   -3   -1    6    1    1   -0.000024   -0.000000   -0.000001   -0.000000   -0.000005    0.000000
   -3   -1    6    2    1   -0.000006   -0.000000    0.000063    0.000000   -0.000512   -0.000000
   -3   -1    6    1    2   -0.000029   -0.000000    0.000068   -0.000000    0.000025   -0.000000
   -3   -1    6    2    2    0.000049   -0.000000    0.000119   -0.000000   -0.000028    0.000000
   -3   -1    7    1    1   -0.000030    0.000000    0.000004    0.000000   -0.000000    0.000000
   -3   -1    7    2    1   -0.000037    0.000000    0.000109    0.000000   -0.000195    0.000000
   -3   -1    7    1    2   -0.000029    0.000000    0.000068   -0.000000   -0.000019    0.000000
   -3   -1    7    2    2    0.000063    0.000000    0.000143    0.000000   -0.000000    0.000000
   -3    0   -7    1    1   -0.000017   -0.000000    0.000002   -0.000000    0.000000   -0.000000
   -3    0   -7    2    1    0.000012    0.000000   -0.000038   -0.000000    0.000126   -0.000000
   -3    0   -7    1    2    0.000010   -0.000000   -0.000031   -0.000000    0.000048   -0.000000
   -3    0   -7    2    2   -0.000002   -0.000000   -0.000005    0.000000   -0.000000   -0.000000
   -3    0   -6    1    1   -0.000011   -0.000000    0.000003   -0.000000    0.000006    0.000000
   -3    0   -6    2    1    0.000012    0.000000   -0.000038    0.000000   -0.000121    0.000000
   -3    0   -6    1    2    0.000001   -0.000000   -0.000022    0.000000    0.000116    0.000000
   -3    0   -6    2    2   -0.000004   -0.000000   -0.000005   -0.000000   -0.000004    0.000000
   -3    0   -5    1    1    0.000003    0.000000    0.000006    0.000000    0.000012   -0.000000
   -3    0   -5    2    1    0.000012   -0.000000   -0.000027    0.000000   -0.000330   -0.000000
   -3    0   -5    1    2   -0.000009    0.000000   -0.000009   -0.000000    0.000151   -0.000000
   -3    0   -5    2    2   -0.000008    0.000000   -0.000005    0.000000   -0.000007    0.000000
   -3    0   -4    1    1    0.000014   -0.000000    0.000009   -0.000000    0.000022    0.000000
   -3    0   -4    2    1    0.000006   -0.000000   -0.000005   -0.000000   -0.000363   -0.000000
   -3    0   -4    1    2   -0.000011    0.000000    0.000001   -0.000000    0.000136    0.000000
   -3    0   -4    2    2   -0.000009   -0.000000   -0.000006   -0.000000   -0.000014    0.000000
   -3    0   -3    1    1    0.000013   -0.000000    0.000010   -0.000000    0.000039   -0.000000
   -3    0   -3    2    1   -0.000002    0.000000    0.000017    0.000000   -0.000262    0.000000
   -3    0   -3    1    2   -0.000003   -0.000000    0.000005    0.000000    0.000085    0.000000
   -3    0   -3    2    2   -0.000004   -0.000000   -0.000007   -0.000000   -0.000034   -0.000000
   -3    0   -2    1    1    0.000003   -0.000000    0.000007   -0.000000    0.000055   -0.000000
   -3    0   -2    2    1   -0.000021    0.000000    0.000028   -0.000000   -0.000052   -0.000000
   -3    0   -2    1    2    0.000013    0.000000    0.000004    0.000000    0.000031    0.000000
   -3    0   -2    2    2    0.000004   -0.000000   -0.000005    0.000000   -0.000057    0.000000
   -3    0   -1    1    1   -0.000007    0.000000    0.000001   -0.000000    0.000048   -0.000000
   -3    0   -1    2    1   -0.000023    0.000000    0.000014    0.000000    0.000064    0.000000
   -3    0   -1    1    2    0.000025   -0.000000    0.000000   -0.000000    0.000002   -0.000000
   -3    0   -1    2    2    0.000009   -0.000000   -0.000001   -0.000000   -0.000053   -0.000000
   -3    0    0    1    1   -0.000010   -0.000000   -0.000002   -0.000000    0.000000   -0.000000
   -3    0    0    2    1   -0.000063    0.000000   -0.000006    0.000000    0.000050    0.000000
   -3    0    0    1    2    0.000025    0.000000    0.000000   -0.000000   -0.000004    0.000000
   -3    0    0    2    2    0.000011   -0.000000    0.000003   -0.000000    0.000000   -0.000000
   -3    0    1    1    1   -0.000007    0.000000    0.000001   -0.000000   -0.000048    0.000000
   -3    0    1    2    1   -0.000063   -0.000000   -0.000006    0.000000   -0.000010   -0.000000
   -3    0    1    1    2    0.000013    0.000000    0.000004    0.000000   -0.000005    0.000000
   -3    0    1    2    2    0.000009    0.000000   -0.000001   -0.000000    0.000053    0.000000
   -3    0    2    1    1    0.000003   -0.000000    0.000007   -0.000000   -0.000055   -0.000000
   -3    0    2    2    1   -0.000023   -0.000000    0.000014    0.000000   -0.000056   -0.000000
   -3    0    2    1    2   -0.000003   -0.000000    0.000005   -0.000000   -0.000026   -0.000000
   -3    0    2    2    2    0.000004    0.000000   -0.000005    0.000000    0.000057   -0.000000
   -3    0    3    1    1    0.000013    0.000000    0.000010    0.000000   -0.000039   -0.000000
   -3    0    3    2    1   -0.000021    0.000000    0.000028   -0.000000    0.000017    0.000000
   -3    0    3    1    2   -0.000011   -0.000000    0.000001    0.000000   -0.000062   -0.000000
   -3    0    3    2    2   -0.000004   -0.000000   -0.000007    0.000000    0.000034   -0.000000
   -3    0    4    1    1    0.000014   -0.000000    0.000009   -0.000000   -0.000022    0.000000
   -3    0    4    2    1   -0.000002   -0.000000    0.000017    0.000000    0.000203   -0.000000
   -3    0    4    1    2   -0.000009   -0.000000   -0.000009    0.000000   -0.000087    0.000000
   -3    0    4    2    2   -0.000009    0.000000   -0.000006   -0.000000    0.000014    0.000000
   -3    0    5    1    1    0.000003    0.000000    0.000006    0.000000   -0.000012   -0.000000
   -3    0    5    2    1    0.000006    0.000000   -0.000005   -0.000000    0.000316    0.000000
   -3    0    5    1    2    0.000001   -0.000000   -0.000022   -0.000000   -0.000077   -0.000000
   -3    0    5    2    2   -0.000008   -0.000000   -0.000005   -0.000000    0.000007   -0.000000
   -3    0    6    1    1   -0.000011    0.000000    0.000003    0.000000   -0.000006   -0.000000
   -3    0    6    2    1    0.000012   -0.000000   -0.000027   -0.000000    0.000312   -0.000000
   -3    0    6    1    2    0.000010    0.000000   -0.000031    0.000000   -0.000026    0.000000
   -3    0    6    2    2   -0.000004   -0.000000   -0.000005    0.000000    0.000004   -0.000000
   -3    0    7    1    1   -0.000017   -0.000000    0.000002   -0.000000   -0.000000    0.000000
   -3    0    7    2    1    0.000012    0.000000   -0.000038   -0.000000    0.000126   -0.000000
   -3    0    7    1    2    0.000010   -0.000000   -0.000031   -0.000000    0.000048   -0.000000
   -3    0    7    2    2   -0.000002   -0.000000   -0.000005    0.000000    0.000000    0.000000
   -2   -5   -7    1    1    0.000000   -0.000000   -0.000002   -0.000000    0.000000    0.000000
   -2   -5   -7    2    1    0.000009    0.000000   -0.000027   -0.000000   -0.000040    0.000000
   -2   -5   -7    1    2    0.000006   -0.000000   -0.000095    0.000000    0.000069    0.000000
   -2   -5   -7    2    2   -0.000000   -0.000000    0.000001    0.000000    0.000000   -0.000000
   -2   -5   -6    1    1    0.000000   -0.000000   -0.000003   -0.000000    0.000007    0.000000
   -2   -5   -6    2    1    0.000009    0.000000   -0.000027    0.000000    0.000038   -0.000000
   -2   -5   -6    1    2    0.000000   -0.000000   -0.000041   -0.000000    0.000155   -0.000000
   -2   -5   -6    2    2   -0.000000   -0.000000    0.000005   -0.000000   -0.000002    0.000000
   -2   -5   -5    1    1    0.000000    0.000000   -0.000005   -0.000000    0.000017    0.000000
   -2   -5   -5    2    1    0.000008   -0.000000   -0.000028   -0.000000    0.000101    0.000000
   -2   -5   -5    1    2   -0.000008   -0.000000    0.000030    0.000000    0.000151   -0.000000
   -2   -5   -5    2    2   -0.000000    0.000000    0.000010    0.000000   -0.000019   -0.000000
   -2   -5   -4    1    1    0.000000    0.000000   -0.000004    0.000000    0.000025   -0.000000
   -2   -5   -4    2    1    0.000005    0.000000   -0.000030    0.000000    0.000109    0.000000
   -2   -5   -4    1    2   -0.000007    0.000000    0.000058   -0.000000    0.000091    0.000000
   -2   -5   -4    2    2   -0.000000    0.000000    0.000011   -0.000000   -0.000039    0.000000
   -2   -5   -3    1    1    0.000000   -0.000000   -0.000000    0.000000    0.000020   -0.000000
   -2   -5   -3    2    1   -0.000001   -0.000000   -0.000031    0.000000    0.000044   -0.000000
   -2   -5   -3    1    2   -0.000004   -0.000000    0.000031    0.000000    0.000061   -0.000000
   -2   -5   -3    2    2   -0.000000   -0.000000    0.000003    0.000000   -0.000030    0.000000
   -2   -5   -2    1    1   -0.000000   -0.000000    0.000005    0.000000    0.000001    0.000000
   -2   -5   -2    2    1   -0.000010   -0.000000   -0.000027   -0.000000   -0.000058    0.000000
   -2   -5   -2    1    2    0.000011    0.000000   -0.000051   -0.000000    0.000073   -0.000000
   -2   -5   -2    2    2    0.000000    0.000000   -0.000008   -0.000000    0.000009   -0.000000
   -2   -5   -1    1    1    0.000000   -0.000000    0.000008    0.000000   -0.000009    0.000000
   -2   -5   -1    2    1   -0.000018   -0.000000   -0.000018    0.000000   -0.000118    0.000000
   -2   -5   -1    1    2    0.000018    0.000000   -0.000113    0.000000    0.000080    0.000000
   -2   -5   -1    2    2   -0.000000    0.000000   -0.000015    0.000000    0.000031   -0.000000
   -2   -5    0    1    1    0.000000   -0.000000    0.000008    0.000000    0.000000   -0.000000
   -2   -5    0    2    1   -0.000024    0.000000   -0.000010   -0.000000   -0.000080   -0.000000
   -2   -5    0    1    2    0.000018    0.000000   -0.000113   -0.000000    0.000061    0.000000
   -2   -5    0    2    2   -0.000000   -0.000000   -0.000016   -0.000000    0.000000   -0.000000
   -2   -5    1    1    1    0.000000   -0.000000    0.000008    0.000000    0.000009   -0.000000
   -2   -5    1    2    1   -0.000024    0.000000   -0.000010    0.000000    0.000020    0.000000
   -2   -5    1    1    2    0.000011    0.000000   -0.000051    0.000000    0.000039   -0.000000
   -2   -5    1    2    2   -0.000000    0.000000   -0.000015    0.000000   -0.000031    0.000000
   -2   -5    2    1    1   -0.000000    0.000000    0.000005    0.000000   -0.000001   -0.000000
   -2   -5    2    2    1   -0.000018    0.000000   -0.000018    0.000000    0.000086   -0.000000
   -2   -5    2    1    2   -0.000004   -0.000000    0.000031   -0.000000    0.000030    0.000000
   -2   -5    2    2    2    0.000000    0.000000   -0.000008    0.000000   -0.000009    0.000000
   -2   -5    3    1    1    0.000000    0.000000   -0.000000    0.000000   -0.000020    0.000000
   -2   -5    3    2    1   -0.000010   -0.000000   -0.000027   -0.000000    0.000061    0.000000
   -2   -5    3    1    2   -0.000007    0.000000    0.000058   -0.000000   -0.000001    0.000000
   -2   -5    3    2    2   -0.000000   -0.000000    0.000003   -0.000000    0.000030   -0.000000
   -2   -5    4    1    1    0.000000    0.000000   -0.000004    0.000000   -0.000025   -0.000000
   -2   -5    4    2    1   -0.000001    0.000000   -0.000031   -0.000000   -0.000022    0.000000
   -2   -5    4    1    2   -0.000008   -0.000000    0.000030    0.000000   -0.000065    0.000000
   -2   -5    4    2    2   -0.000000    0.000000    0.000011    0.000000    0.000039    0.000000
   -2   -5    5    1    1    0.000000    0.000000   -0.000005    0.000000   -0.000017    0.000000
   -2   -5    5    2    1    0.000005   -0.000000   -0.000030    0.000000   -0.000089   -0.000000
   -2   -5    5    1    2    0.000000   -0.000000   -0.000041   -0.000000   -0.000102   -0.000000
   -2   -5    5    2    2   -0.000000    0.000000    0.000010   -0.000000    0.000019   -0.000000
   -2   -5    6    1    1    0.000000   -0.000000   -0.000003   -0.000000   -0.000007   -0.000000
   -2   -5    6    2    1    0.000008    0.000000   -0.000028   -0.000000   -0.000093    0.000000
   -2   -5    6    1    2    0.000006    0.000000   -0.000095    0.000000   -0.000052   -0.000000
   -2   -5    6    2    2   -0.000000   -0.000000    0.000005   -0.000000    0.000002   -0.000000
   -2   -5    7    1    1    0.000000   -0.000000   -0.000002   -0.000000   -0.000000    0.000000
   -2   -5    7    2    1    0.000009    0.000000   -0.000027   -0.000000   -0.000040    0.000000
   -2   -5    7    1    2    0.000006   -0.000000   -0.000095    0.000000    0.000069    0.000000
   -2   -5    7    2    2   -0.000000   -0.000000    0.000001    0.000000   -0.000000    0.000000
   -2   -4   -7    1    1   -0.000007   -0.000000    0.000028   -0.000000   -0.000000    0.000000
   -2   -4   -7    2    1   -0.000011   -0.000000    0.000155    0.000000    0.000019   -0.000000
   -2   -4   -7    1    2   -0.000000   -0.000000   -0.000025   -0.000000    0.000075   -0.000000
   -2   -4   -7    2    2    0.000002   -0.000000   -0.000069    0.000000    0.000000    0.000000
   -2   -4   -6    1    1   -0.000008   -0.000000    0.000025    0.000000   -0.000003    0.000000
   -2   -4   -6    2    1   -0.000011   -0.000000    0.000155   -0.000000   -0.000022    0.000000
   -2   -4   -6    1    2   -0.000000    0.000000   -0.000061   -0.000000    0.000126    0.000000
   -2   -4   -6    2    2    0.000004    0.000000   -0.000072    0.000000    0.000020   -0.000000
   -2   -4   -5    1    1   -0.000009   -0.000000    0.000020    0.000000   -0.000006   -0.000000
   -2   -4   -5    2    1   -0.000012    0.000000    0.000069   -0.000000   -0.000043    0.000000
   -2   -4   -5    1    2   -0.000000   -0.000000   -0.000092    0.000000    0.000065   -0.000000
   -2   -4   -5    2    2    0.000008   -0.000000   -0.000075    0.000000    0.000042    0.000000
   -2   -4   -4    1    1   -0.000010   -0.000000    0.000016    0.000000   -0.000009   -0.000000
   -2   -4   -4    2    1   -0.000015   -0.000000   -0.000042    0.000000   -0.000024   -0.000000
   -2   -4   -4    1    2   -0.000000   -0.000000   -0.000068   -0.000000   -0.000071    0.000000
   -2   -4   -4    2    2    0.000010    0.000000   -0.000064   -0.000000    0.000060    0.000000
   -2   -4   -3    1    1   -0.000010    0.000000    0.000019   -0.000000   -0.000016    0.000000
   -2   -4   -3    2    1   -0.000020   -0.000000   -0.000106    0.000000    0.000011    0.000000
   -2   -4   -3    1    2   -0.000000   -0.000000    0.000033    0.000000   -0.000125   -0.000000
   -2   -4   -3    2    2    0.000007   -0.000000   -0.000035    0.000000    0.000057   -0.000000
   -2   -4   -2    1    1   -0.000010    0.000000    0.000023   -0.000000   -0.000025    0.000000
   -2   -4   -2    2    1   -0.000027    0.000000   -0.000079   -0.000000    0.000031   -0.000000
   -2   -4   -2    1    2   -0.000000    0.000000    0.000147    0.000000   -0.000123    0.000000
   -2   -4   -2    2    2   -0.000002    0.000000    0.000002   -0.000000    0.000025    0.000000
   -2   -4   -1    1    1   -0.000009   -0.000000    0.000025    0.000000   -0.000018    0.000000
   -2   -4   -1    2    1   -0.000031    0.000000    0.000011   -0.000000    0.000022    0.000000
   -2   -4   -1    1    2   -0.000000   -0.000000    0.000226    0.000000   -0.000066   -0.000000
   -2   -4   -1    2    2   -0.000011   -0.000000    0.000023    0.000000   -0.000002   -0.000000
   -2   -4    0    1    1   -0.000010    0.000000    0.000021    0.000000   -0.000000    0.000000
   -2   -4    0    2    1   -0.000034   -0.000000    0.000089   -0.000000    0.000005    0.000000
   -2   -4    0    1    2   -0.000000    0.000000    0.000226   -0.000000   -0.000051   -0.000000
   -2   -4    0    2    2   -0.000015    0.000000    0.000031    0.000000    0.000000    0.000000
   -2   -4    1    1    1   -0.000009    0.000000    0.000025   -0.000000    0.000018   -0.000000
   -2   -4    1    2    1   -0.000034    0.000000    0.000089    0.000000   -0.000005   -0.000000
   -2   -4    1    1    2   -0.000000    0.000000    0.000147   -0.000000    0.000000    0.000000
   -2   -4    1    2    2   -0.000011   -0.000000    0.000023    0.000000    0.000002   -0.000000
   -2   -4    2    1    1   -0.000010   -0.000000    0.000023    0.000000    0.000025    0.000000
   -2   -4    2    2    1   -0.000031   -0.000000    0.000011   -0.000000   -0.000019    0.000000
   -2   -4    2    1    2   -0.000000    0.000000    0.000033    0.000000    0.000018    0.000000
   -2   -4    2    2    2   -0.000002   -0.000000    0.000002    0.000000   -0.000025   -0.000000
   -2   -4    3    1    1   -0.000010    0.000000    0.000019   -0.000000    0.000016   -0.000000
   -2   -4    3    2    1   -0.000027    0.000000   -0.000079    0.000000   -0.000027   -0.000000
   -2   -4    3    1    2   -0.000000   -0.000000   -0.000068    0.000000    0.000023    0.000000
   -2   -4    3    2    2    0.000007    0.000000   -0.000035   -0.000000   -0.000057   -0.000000
   -2   -4    4    1    1   -0.000010   -0.000000    0.000016    0.000000    0.000009    0.000000
   -2   -4    4    2    1   -0.000020    0.000000   -0.000106    0.000000   -0.000011    0.000000
   -2   -4    4    1    2   -0.000000    0.000000   -0.000092   -0.000000   -0.000043   -0.000000
   -2   -4    4    2    2    0.000010    0.000000   -0.000064   -0.000000   -0.000060   -0.000000
   -2   -4    5    1    1   -0.000009   -0.000000    0.000020   -0.000000    0.000006   -0.000000
   -2   -4    5    2    1   -0.000015    0.000000   -0.000042   -0.000000    0.000020    0.000000
   -2   -4    5    1    2   -0.000000    0.000000   -0.000061    0.000000   -0.000085    0.000000
   -2   -4    5    2    2    0.000008    0.000000   -0.000075    0.000000   -0.000042    0.000000
   -2   -4    6    1    1   -0.000008   -0.000000    0.000025    0.000000    0.000003    0.000000
   -2   -4    6    2    1   -0.000012   -0.000000    0.000069    0.000000    0.000038   -0.000000
   -2   -4    6    1    2   -0.000000    0.000000   -0.000025    0.000000   -0.000044    0.000000
   -2   -4    6    2    2    0.000004    0.000000   -0.000072   -0.000000   -0.000020   -0.000000
   -2   -4    7    1    1   -0.000007   -0.000000    0.000028   -0.000000    0.000000    0.000000
   -2   -4    7    2    1   -0.000011   -0.000000    0.000155    0.000000    0.000019   -0.000000
   -2   -4    7    1    2   -0.000000   -0.000000   -0.000025   -0.000000    0.000075   -0.000000
   -2   -4    7    2    2    0.000002   -0.000000   -0.000069    0.000000   -0.000000    0.000000
   -2   -3   -7    1    1    0.000008    0.000000    0.000094    0.000000    0.000000   -0.000000
   -2   -3   -7    2    1   -0.000014    0.000000    0.000238   -0.000000    0.000061    0.000000
   -2   -3   -7    1    2   -0.000043    0.000000    0.000070    0.000000   -0.000017    0.000000
   -2   -3   -7    2    2   -0.000004   -0.000000   -0.000102    0.000000   -0.000000   -0.000000
   -2   -3   -6    1    1    0.000012    0.000000    0.000096   -0.000000   -0.000014    0.000000
   -2   -3   -6    2    1   -0.000014    0.000000    0.000238    0.000000   -0.000082   -0.000000
   -2   -3   -6    1    2   -0.000020   -0.000000    0.000035   -0.000000   -0.000033   -0.000000
   -2   -3   -6    2    2   -0.000014    0.000000   -0.000104   -0.000000    0.000016    0.000000
   -2   -3   -5    1    1    0.000015   -0.000000    0.000122   -0.000000   -0.000039    0.000000
   -2   -3   -5    2    1   -0.000028   -0.000000    0.000088    0.000000   -0.000210   -0.000000
   -2   -3   -5    1    2    0.000019    0.000000   -0.000011   -0.000000    0.000044    0.000000
   -2   -3   -5    2    2   -0.000029   -0.000000   -0.000125    0.000000    0.000044   -0.000000
   -2   -3   -4    1    1    0.000016    0.000000    0.000094   -0.000000   -0.000056    0.000000
   -2   -3   -4    2    1   -0.000060    0.000000   -0.000147   -0.000000   -0.000257    0.000000
   -2   -3   -4    1    2    0.000058    0.000000   -0.000033    0.000000    0.000148    0.000000
   -2   -3   -4    2    2   -0.000038    0.000000   -0.000114   -0.000000    0.000076   -0.000000
   -2   -3   -3    1    1   -0.000020    0.000000    0.000171    0.000000   -0.000097   -0.000000
   -2   -3   -3    2    1   -0.000113    0.000000   -0.000392    0.000000   -0.000210   -0.000000
   -2   -3   -3    1    2    0.000088   -0.000000   -0.000049   -0.000000    0.000222   -0.000000
   -2   -3   -3    2    2    0.000015   -0.000000   -0.000207   -0.000000    0.000118    0.000000
   -2   -3   -2    1    1   -0.000021    0.000000   -0.000074    0.000000    0.000100   -0.000000
   -2   -3   -2    2    1   -0.000156   -0.000000   -0.000524   -0.000000   -0.000071    0.000000
   -2   -3   -2    1    2    0.000147   -0.000000   -0.000018    0.000000    0.000212   -0.000000
   -2   -3   -2    2    2    0.000028    0.000000    0.000021   -0.000000   -0.000071   -0.000000
   -2   -3   -1    1    1   -0.000071   -0.000000    0.000097   -0.000000    0.000034    0.000000
   -2   -3   -1    2    1   -0.000158    0.000000   -0.000521    0.000000   -0.000000   -0.000000
   -2   -3   -1    1    2    0.000255    0.000000    0.000008   -0.000000    0.000141    0.000000
   -2   -3   -1    2    2    0.000148    0.000000   -0.000251    0.000000   -0.000024   -0.000000
   -2   -3    0    1    1    0.000010   -0.000000   -0.000040    0.000000   -0.000000   -0.000000
   -2   -3    0    2    1   -0.000044    0.000000   -0.000204   -0.000000   -0.000027    0.000000
   -2   -3    0    1    2    0.000255    0.000000    0.000008    0.000000    0.000049    0.000000
   -2   -3    0    2    2    0.000058   -0.000000   -0.000092    0.000000   -0.000000    0.000000
   -2   -3    1    1    1   -0.000071   -0.000000    0.000097    0.000000   -0.000034   -0.000000
   -2   -3    1    2    1   -0.000044   -0.000000   -0.000204   -0.000000    0.000007    0.000000
   -2   -3    1    1    2    0.000147   -0.000000   -0.000018   -0.000000   -0.000008   -0.000000
   -2   -3    1    2    2    0.000148    0.000000   -0.000251    0.000000    0.000024    0.000000
   -2   -3    2    1    1   -0.000021    0.000000   -0.000074   -0.000000   -0.000100   -0.000000
   -2   -3    2    2    1   -0.000158    0.000000   -0.000521    0.000000   -0.000041   -0.000000
   -2   -3    2    1    2    0.000088   -0.000000   -0.000049   -0.000000   -0.000057    0.000000
   -2   -3    2    2    2    0.000028   -0.000000    0.000021    0.000000    0.000071   -0.000000
   -2   -3    3    1    1   -0.000020   -0.000000    0.000171    0.000000    0.000097   -0.000000
   -2   -3    3    2    1   -0.000156   -0.000000   -0.000524   -0.000000    0.000007    0.000000
   -2   -3    3    1    2    0.000058    0.000000   -0.000033   -0.000000   -0.000072   -0.000000
   -2   -3    3    2    2    0.000015   -0.000000   -0.000207   -0.000000   -0.000118   -0.000000
   -2   -3    4    1    1    0.000016    0.000000    0.000094    0.000000    0.000056    0.000000
   -2   -3    4    2    1   -0.000113    0.000000   -0.000392    0.000000    0.000133   -0.000000
   -2   -3    4    1    2    0.000019    0.000000   -0.000011    0.000000   -0.000027    0.000000
   -2   -3    4    2    2   -0.000038    0.000000   -0.000114    0.000000   -0.000076    0.000000
   -2   -3    5    1    1    0.000015    0.000000    0.000122   -0.000000    0.000039   -0.000000
   -2   -3    5    2    1   -0.000060    0.000000   -0.000147   -0.000000    0.000197   -0.000000
   -2   -3    5    1    2   -0.000020   -0.000000    0.000035   -0.000000    0.000034   -0.000000
   -2   -3    5    2    2   -0.000029    0.000000   -0.000125   -0.000000   -0.000044   -0.000000
   -2   -3    6    1    1    0.000012   -0.000000    0.000096   -0.000000    0.000014   -0.000000
   -2   -3    6    2    1   -0.000028   -0.000000    0.000088    0.000000    0.000174    0.000000
   -2   -3    6    1    2   -0.000043    0.000000    0.000070   -0.000000    0.000031   -0.000000
   -2   -3    6    2    2   -0.000014    0.000000   -0.000104   -0.000000   -0.000016   -0.000000
   -2   -3    7    1    1    0.000008    0.000000    0.000094    0.000000   -0.000000    0.000000
   -2   -3    7    2    1   -0.000014    0.000000    0.000238   -0.000000    0.000061    0.000000
   -2   -3    7    1    2   -0.000043    0.000000    0.000070    0.000000   -0.000017    0.000000
   -2   -3    7    2    2   -0.000004   -0.000000   -0.000102    0.000000    0.000000    0.000000
   -2   -2   -7    1    1   -0.000000    0.000000   -0.000769   -0.000000   -0.000000    0.000000
   -2   -2   -7    2    1   -0.000025   -0.000000   -0.000074    0.000000   -0.000142   -0.000000
   -2   -2   -7    1    2    0.000023   -0.000000   -0.000066   -0.000000   -0.000199    0.000000
   -2   -2   -7    2    2    0.000000   -0.000000    0.000649   -0.000000   -0.000000   -0.000000
   -2   -2   -6    1    1    0.000000   -0.000000   -0.000565   -0.000000   -0.000000    0.000000
   -2   -2   -6    2    1   -0.000025    0.000000   -0.000074   -0.000000    0.000128    0.000000
   -2   -2   -6    1    2   -0.000025   -0.000000   -0.000006    0.000000   -0.000538   -0.000000
   -2   -2   -6    2    2   -0.000000   -0.000000    0.000516    0.000000    0.000000    0.000000
   -2   -2   -5    1    1    0.000000   -0.000000    0.000029   -0.000000   -0.000000    0.000000
   -2   -2   -5    2    1   -0.000064   -0.000000    0.000037   -0.000000    0.000410    0.000000
   -2   -2   -5    1    2   -0.000094   -0.000000    0.000069   -0.000000   -0.000654    0.000000
   -2   -2   -5    2    2   -0.000000    0.000000    0.000099   -0.000000    0.000000   -0.000000
   -2   -2   -4    1    1    0.000000   -0.000000    0.000700   -0.000000   -0.000000    0.000000
   -2   -2   -4    2    1   -0.000100    0.000000    0.000165    0.000000    0.000748   -0.000000
   -2   -2   -4    1    2   -0.000138   -0.000000    0.000097    0.000000   -0.000484   -0.000000
   -2   -2   -4    2    2   -0.000000   -0.000000   -0.000439    0.000000    0.000000    0.000000
   -2   -2   -3    1    1    0.000000   -0.000000    0.001471   -0.000000   -0.000000    0.000000
   -2   -2   -3    2    1   -0.000058    0.000000    0.000223    0.000000    0.000972   -0.000000
   -2   -2   -3    1    2   -0.000199   -0.000000    0.000053   -0.000000   -0.000394    0.000000
   -2   -2   -3    2    2    0.000000   -0.000000   -0.001135    0.000000   -0.000000    0.000000
   -2   -2   -2    1    1    0.000000    0.000000    0.000934   -0.000000   -0.000000   -0.000000
   -2   -2   -2    2    1    0.000155   -0.000000    0.000218    0.000000    0.001037    0.000000
   -2   -2   -2    1    2   -0.000233    0.000000   -0.000065   -0.000000   -0.000181   -0.000000
   -2   -2   -2    2    2    0.000000    0.000000   -0.000660   -0.000000   -0.000000   -0.000000
   -2   -2   -1    1    1    0.000000    0.000000    0.001289    0.000000   -0.000000   -0.000000
   -2   -2   -1    2    1    0.000352    0.000000    0.000243   -0.000000    0.000383    0.000000
   -2   -2   -1    1    2   -0.000319   -0.000000   -0.000138    0.000000    0.000013    0.000000
   -2   -2   -1    2    2    0.000000   -0.000000   -0.001320   -0.000000   -0.000000    0.000000
   -2   -2    0    1    1   -0.000000    0.000000   -0.001632    0.000000   -0.000000    0.000000
   -2   -2    0    2    1    0.000098   -0.000000   -0.000015    0.000000    0.000659   -0.000000
   -2   -2    0    1    2   -0.000319    0.000000   -0.000138   -0.000000   -0.000025   -0.000000
   -2   -2    0    2    2   -0.000000    0.000000    0.000679   -0.000000   -0.000000   -0.000000
   -2   -2    1    1    1   -0.000000   -0.000000    0.001289    0.000000   -0.000000   -0.000000
   -2   -2    1    2    1    0.000098    0.000000   -0.000015   -0.000000   -0.000420   -0.000000
   -2   -2    1    1    2   -0.000233   -0.000000   -0.000065    0.000000    0.000091    0.000000
   -2   -2    1    2    2   -0.000000   -0.000000   -0.001320    0.000000   -0.000000   -0.000000
   -2   -2    2    1    1   -0.000000    0.000000    0.000934    0.000000   -0.000000    0.000000
   -2   -2    2    2    1    0.000352    0.000000    0.000243    0.000000   -0.000204    0.000000
   -2   -2    2    1    2   -0.000199    0.000000    0.000053   -0.000000    0.000153    0.000000
   -2   -2    2    2    2   -0.000000    0.000000   -0.000660   -0.000000   -0.000000    0.000000
   -2   -2    3    1    1   -0.000000    0.000000    0.001471   -0.000000   -0.000000    0.000000
   -2   -2    3    2    1    0.000155    0.000000    0.000218    0.000000   -0.000747    0.000000
   -2   -2    3    1    2   -0.000138    0.000000    0.000097    0.000000    0.000256    0.000000
   -2   -2    3    2    2   -0.000000    0.000000   -0.001135    0.000000   -0.000000    0.000000
   -2   -2    4    1    1   -0.000000   -0.000000    0.000700   -0.000000   -0.000000   -0.000000
   -2   -2    4    2    1   -0.000058   -0.000000    0.000223    0.000000   -0.000796   -0.000000
   -2   -2    4    1    2   -0.000094    0.000000    0.000069   -0.000000    0.000438    0.000000
   -2   -2    4    2    2    0.000000   -0.000000   -0.000439    0.000000    0.000000   -0.000000
   -2   -2    5    1    1   -0.000000   -0.000000    0.000029    0.000000   -0.000000   -0.000000
   -2   -2    5    2    1   -0.000100    0.000000    0.000165   -0.000000   -0.000668   -0.000000
   -2   -2    5    1    2   -0.000025    0.000000   -0.000006   -0.000000    0.000444    0.000000
   -2   -2    5    2    2    0.000000    0.000000    0.000099    0.000000    0.000000    0.000000
   -2   -2    6    1    1   -0.000000   -0.000000   -0.000565   -0.000000   -0.000000   -0.000000
   -2   -2    6    2    1   -0.000064    0.000000    0.000037    0.000000   -0.000396    0.000000
   -2   -2    6    1    2    0.000023   -0.000000   -0.000066    0.000000    0.000212   -0.000000
   -2   -2    6    2    2    0.000000    0.000000    0.000516   -0.000000    0.000000    0.000000
   -2   -2    7    1    1   -0.000000    0.000000   -0.000769   -0.000000   -0.000000    0.000000
   -2   -2    7    2    1   -0.000025   -0.000000   -0.000074    0.000000   -0.000142   -0.000000
   -2   -2    7    1    2    0.000023   -0.000000   -0.000066   -0.000000   -0.000199    0.000000
   -2   -2    7    2    2    0.000000   -0.000000    0.000649   -0.000000   -0.000000    0.000000
   -2   -1   -7    1    1   -0.000151   -0.000000    0.000182   -0.000000   -0.000000   -0.000000
   -2   -1   -7    2    1   -0.000063   -0.000000   -0.000301   -0.000000    0.000424   -0.000000
   -2   -1   -7    1    2   -0.000094   -0.000000    0.000069    0.000000   -0.000061   -0.000000
   -2   -1   -7    2    2    0.000088   -0.000000   -0.000305   -0.000000    0.000000   -0.000000
   -2   -1   -6    1    1   -0.000145    0.000000    0.000152   -0.000000    0.000030   -0.000000
   -2   -1   -6    2    1   -0.000063    0.000000   -0.000301    0.000000   -0.000426    0.000000
   -2   -1   -6    1    2   -0.000094   -0.000000   -0.000043   -0.000000   -0.000237    0.000000
   -2   -1   -6    2    2    0.000099    0.000000   -0.000264    0.000000   -0.000039    0.000000
   -2   -1   -5    1    1   -0.000132   -0.000000    0.000041   -0.000000    0.000034   -0.000000
   -2   -1   -5    2    1   -0.000071   -0.000000   -0.000363    0.000000   -0.001130   -0.000000
   -2   -1   -5    1    2   -0.000100    0.000000   -0.000217    0.000000   -0.000351   -0.000000
   -2   -1   -5    2    2    0.000123   -0.000000   -0.000120   -0.000000   -0.000051   -0.000000
   -2   -1   -4    1    1   -0.000052   -0.000000   -0.000064   -0.000000   -0.000010   -0.000000
   -2   -1   -4    2    1   -0.000084   -0.000000   -0.000479   -0.000000   -0.001378    0.000000
   -2   -1   -4    1    2   -0.000118    0.000000   -0.000386   -0.000000   -0.000379   -0.000000
   -2   -1   -4    2    2    0.000089    0.000000    0.000072    0.000000    0.000002    0.000000
   -2   -1   -3    1    1   -0.000068   -0.000000   -0.000334    0.000000   -0.000177    0.000000
   -2   -1   -3    2    1   -0.000066   -0.000000   -0.000600   -0.000000   -0.001272   -0.000000
   -2   -1   -3    1    2   -0.000132    0.000000   -0.000454    0.000000   -0.000279    0.000000
   -2   -1   -3    2    2    0.000151   -0.000000    0.000423   -0.000000    0.000194   -0.000000
   -2   -1   -2    1    1    0.000086    0.000000   -0.000100    0.000000   -0.000172    0.000000
   -2   -1   -2    2    1   -0.000083    0.000000   -0.000866   -0.000000   -0.000266   -0.000000
   -2   -1   -2    1    2   -0.000108   -0.000000   -0.000407   -0.000000   -0.000165   -0.000000
   -2   -1   -2    2    2   -0.000007   -0.000000    0.000299    0.000000    0.000314    0.000000
   -2   -1   -1    1    1   -0.000334   -0.000000   -0.000645   -0.000000   -0.000870   -0.000000
   -2   -1   -1    2    1    0.000260   -0.000000   -0.000311    0.000000   -0.000205    0.000000
   -2   -1   -1    1    2   -0.000055   -0.000000   -0.000160   -0.000000   -0.000033   -0.000000
   -2   -1   -1    2    2    0.000642    0.000000    0.001015   -0.000000    0.001159   -0.000000
   -2   -1    0    1    1   -0.000606    0.000000   -0.000453    0.000000   -0.000000   -0.000000
   -2   -1    0    2    1    0.000529    0.000000   -0.001088    0.000000   -0.000036    0.000000
   -2   -1    0    1    2   -0.000055    0.000000   -0.000160    0.000000   -0.000027    0.000000
   -2   -1    0    2    2    0.000487   -0.000000    0.000371   -0.000000    0.000000    0.000000
   -2   -1    1    1    1   -0.000334   -0.000000   -0.000645   -0.000000    0.000870    0.000000
   -2   -1    1    2    1    0.000529   -0.000000   -0.001088   -0.000000    0.000330   -0.000000
   -2   -1    1    1    2   -0.000108    0.000000   -0.000407    0.000000    0.000079    0.000000
[...]
    4    1    2    1    1   -0.000010   -0.000000   -0.000000    0.000000    0.000026    0.000000
    4    1    2    2    1   -0.000001    0.000000   -0.000019   -0.000000    0.000086    0.000000
    4    1    2    1    2   -0.000009    0.000000    0.000046   -0.000000    0.000068   -0.000000
    4    1    2    2    2    0.000012   -0.000000    0.000001    0.000000   -0.000034    0.000000
    4    1    3    1    1   -0.000006    0.000000    0.000001    0.000000    0.000010    0.000000
    4    1    3    2    1    0.000011   -0.000000   -0.000029    0.000000    0.000061   -0.000000
    4    1    3    1    2   -0.000024   -0.000000    0.000092   -0.000000    0.000148   -0.000000
    4    1    3    2    2    0.000013   -0.000000    0.000003    0.000000   -0.000000    0.000000
    4    1    4    1    1   -0.000002    0.000000    0.000000   -0.000000   -0.000000   -0.000000
    4    1    4    2    1    0.000016   -0.000000   -0.000034    0.000000   -0.000022   -0.000000
    4    1    4    1    2   -0.000013   -0.000000    0.000071    0.000000    0.000197   -0.000000
    4    1    4    2    2    0.000008   -0.000000    0.000005   -0.000000    0.000014   -0.000000
    4    1    5    1    1    0.000002   -0.000000    0.000001    0.000000   -0.000000    0.000000
    4    1    5    2    1    0.000012    0.000000   -0.000032    0.000000   -0.000089   -0.000000
    4    1    5    1    2   -0.000002    0.000000    0.000031   -0.000000    0.000156    0.000000
    4    1    5    2    2   -0.000002    0.000000    0.000001    0.000000    0.000005   -0.000000
    4    1    6    1    1    0.000006    0.000000    0.000002    0.000000    0.000002   -0.000000
    4    1    6    2    1    0.000002    0.000000   -0.000029   -0.000000   -0.000093    0.000000
    4    1    6    1    2    0.000011    0.000000   -0.000008   -0.000000    0.000049   -0.000000
    4    1    6    2    2   -0.000010    0.000000   -0.000005    0.000000   -0.000003    0.000000
    4    1    7    1    1    0.000007    0.000000    0.000003   -0.000000    0.000000    0.000000
    4    1    7    2    1   -0.000006    0.000000   -0.000026   -0.000000   -0.000040   -0.000000
    4    1    7    1    2    0.000011   -0.000000   -0.000008    0.000000   -0.000107   -0.000000
    4    1    7    2    2   -0.000014   -0.000000   -0.000008    0.000000   -0.000000    0.000000
    4    2   -7    1    1    0.000007    0.000000    0.000028    0.000000   -0.000000   -0.000000
    4    2   -7    2    1    0.000021    0.000000   -0.000038   -0.000000    0.000052   -0.000000
    4    2   -7    1    2    0.000004    0.000000    0.000043   -0.000000   -0.000005    0.000000
    4    2   -7    2    2   -0.000002    0.000000   -0.000069   -0.000000    0.000000   -0.000000
    4    2   -6    1    1    0.000008    0.000000    0.000025    0.000000   -0.000003   -0.000000
    4    2   -6    2    1    0.000021   -0.000000   -0.000038    0.000000   -0.000041    0.000000
    4    2   -6    1    2   -0.000017   -0.000000    0.000037    0.000000   -0.000028   -0.000000
    4    2   -6    2    2   -0.000004   -0.000000   -0.000072   -0.000000    0.000020    0.000000
    4    2   -5    1    1    0.000009    0.000000    0.000020    0.000000   -0.000006    0.000000
    4    2   -5    2    1    0.000016    0.000000   -0.000107   -0.000000   -0.000110    0.000000
    4    2   -5    1    2   -0.000031   -0.000000    0.000016    0.000000   -0.000079   -0.000000
    4    2   -5    2    2   -0.000008   -0.000000   -0.000075   -0.000000    0.000042    0.000000
    4    2   -4    1    1    0.000010   -0.000000    0.000016   -0.000000   -0.000009    0.000000
    4    2   -4    2    1    0.000010   -0.000000   -0.000191    0.000000   -0.000115    0.000000
    4    2   -4    1    2   -0.000025   -0.000000   -0.000024    0.000000   -0.000088    0.000000
    4    2   -4    2    2   -0.000010    0.000000   -0.000064    0.000000    0.000060   -0.000000
    4    2   -3    1    1    0.000010    0.000000    0.000019   -0.000000   -0.000016   -0.000000
    4    2   -3    2    1    0.000009    0.000000   -0.000225   -0.000000   -0.000063   -0.000000
    4    2   -3    1    2    0.000034    0.000000   -0.000067   -0.000000   -0.000110   -0.000000
    4    2   -3    2    2   -0.000007    0.000000   -0.000035    0.000000    0.000057   -0.000000
    4    2   -2    1    1    0.000010    0.000000    0.000023   -0.000000   -0.000025    0.000000
    4    2   -2    2    1    0.000014    0.000000   -0.000181    0.000000    0.000003    0.000000
    4    2   -2    1    2    0.000055    0.000000   -0.000061   -0.000000   -0.000098   -0.000000
    4    2   -2    2    2    0.000002   -0.000000    0.000002   -0.000000    0.000025   -0.000000
    4    2   -1    1    1    0.000009   -0.000000    0.000025    0.000000   -0.000018   -0.000000
    4    2   -1    2    1    0.000021   -0.000000   -0.000089    0.000000    0.000040   -0.000000
    4    2   -1    1    2    0.000176   -0.000000   -0.000138    0.000000   -0.000076    0.000000
    4    2   -1    2    2    0.000011    0.000000    0.000023    0.000000   -0.000002   -0.000000
    4    2    0    1    1    0.000010   -0.000000    0.000021   -0.000000   -0.000000   -0.000000
    4    2    0    2    1    0.000025   -0.000000   -0.000019    0.000000    0.000030    0.000000
    4    2    0    1    2    0.000176    0.000000   -0.000138   -0.000000    0.000050   -0.000000
    4    2    0    2    2    0.000015   -0.000000    0.000031   -0.000000    0.000000   -0.000000
    4    2    1    1    1    0.000009    0.000000    0.000025    0.000000    0.000018    0.000000
    4    2    1    2    1    0.000025    0.000000   -0.000019   -0.000000   -0.000008    0.000000
    4    2    1    1    2    0.000055   -0.000000   -0.000061    0.000000    0.000066    0.000000
    4    2    1    2    2    0.000011    0.000000    0.000023   -0.000000    0.000002   -0.000000
    4    2    2    1    1    0.000010    0.000000    0.000023   -0.000000    0.000025   -0.000000
    4    2    2    2    1    0.000021   -0.000000   -0.000089    0.000000   -0.000026   -0.000000
    4    2    2    1    2    0.000034    0.000000   -0.000067   -0.000000    0.000053    0.000000
    4    2    2    2    2    0.000002    0.000000    0.000002    0.000000   -0.000025    0.000000
    4    2    3    1    1    0.000010    0.000000    0.000019   -0.000000    0.000016   -0.000000
    4    2    3    2    1    0.000014    0.000000   -0.000181   -0.000000    0.000001   -0.000000
    4    2    3    1    2   -0.000025   -0.000000   -0.000024    0.000000    0.000029   -0.000000
    4    2    3    2    2   -0.000007   -0.000000   -0.000035   -0.000000   -0.000057   -0.000000
    4    2    4    1    1    0.000010   -0.000000    0.000016    0.000000    0.000009    0.000000
    4    2    4    2    1    0.000009   -0.000000   -0.000225   -0.000000    0.000060    0.000000
    4    2    4    1    2   -0.000031    0.000000    0.000016   -0.000000    0.000035    0.000000
    4    2    4    2    2   -0.000010    0.000000   -0.000064    0.000000   -0.000060    0.000000
    4    2    5    1    1    0.000009    0.000000    0.000020   -0.000000    0.000006   -0.000000
    4    2    5    2    1    0.000010    0.000000   -0.000191   -0.000000    0.000112    0.000000
    4    2    5    1    2   -0.000017   -0.000000    0.000037   -0.000000    0.000018    0.000000
    4    2    5    2    2   -0.000008    0.000000   -0.000075    0.000000   -0.000042   -0.000000
    4    2    6    1    1    0.000008    0.000000    0.000025    0.000000    0.000003    0.000000
    4    2    6    2    1    0.000016    0.000000   -0.000107    0.000000    0.000114   -0.000000
    4    2    6    1    2    0.000004   -0.000000    0.000043    0.000000    0.000012   -0.000000
    4    2    6    2    2   -0.000004   -0.000000   -0.000072    0.000000   -0.000020    0.000000
    4    2    7    1    1    0.000007    0.000000    0.000028    0.000000    0.000000   -0.000000
    4    2    7    2    1    0.000021    0.000000   -0.000038   -0.000000    0.000052   -0.000000
    4    2    7    1    2    0.000004    0.000000    0.000043   -0.000000   -0.000005    0.000000
    4    2    7    2    2   -0.000002    0.000000   -0.000069   -0.000000   -0.000000    0.000000
    4    3   -7    1    1    0.000000    0.000000   -0.000081   -0.000000    0.000000   -0.000000
    4    3   -7    2    1   -0.000033    0.000000   -0.000141    0.000000   -0.000046    0.000000
    4    3   -7    1    2    0.000043   -0.000000    0.000070   -0.000000   -0.000017   -0.000000
    4    3   -7    2    2   -0.000000    0.000000    0.000209   -0.000000   -0.000000   -0.000000
    4    3   -6    1    1    0.000000    0.000000   -0.000064    0.000000    0.000025   -0.000000
    4    3   -6    2    1   -0.000033    0.000000   -0.000141   -0.000000    0.000064   -0.000000
    4    3   -6    1    2    0.000020    0.000000    0.000035    0.000000   -0.000033    0.000000
    4    3   -6    2    2   -0.000000   -0.000000    0.000202    0.000000   -0.000026   -0.000000
    4    3   -5    1    1    0.000000   -0.000000   -0.000037    0.000000    0.000049    0.000000
    4    3   -5    2    1   -0.000011   -0.000000   -0.000091   -0.000000    0.000119    0.000000
    4    3   -5    1    2   -0.000019   -0.000000   -0.000011    0.000000    0.000044    0.000000
    4    3   -5    2    2   -0.000000   -0.000000    0.000184   -0.000000   -0.000052    0.000000
    4    3   -4    1    1    0.000000    0.000000    0.000048   -0.000000    0.000059    0.000000
    4    3   -4    2    1    0.000022    0.000000   -0.000020    0.000000    0.000073   -0.000000
    4    3   -4    1    2   -0.000058   -0.000000   -0.000033    0.000000    0.000148   -0.000000
    4    3   -4    2    2   -0.000000    0.000000    0.000091   -0.000000   -0.000065    0.000000
    4    3   -3    1    1   -0.000000   -0.000000    0.000039    0.000000    0.000106   -0.000000
    4    3   -3    2    1    0.000059   -0.000000    0.000050    0.000000    0.000020    0.000000
    4    3   -3    1    2   -0.000088    0.000000   -0.000049   -0.000000    0.000222   -0.000000
    4    3   -3    2    2    0.000000   -0.000000    0.000047    0.000000   -0.000097   -0.000000
    4    3   -2    1    1   -0.000000   -0.000000    0.000186   -0.000000    0.000078    0.000000
    4    3   -2    2    1    0.000080   -0.000000    0.000102   -0.000000    0.000027   -0.000000
    4    3   -2    1    2   -0.000147    0.000000   -0.000018    0.000000    0.000212    0.000000
    4    3   -2    2    2    0.000000    0.000000   -0.000192   -0.000000   -0.000050    0.000000
    4    3   -1    1    1   -0.000000   -0.000000    0.000125   -0.000000    0.000168    0.000000
    4    3   -1    2    1    0.000114    0.000000    0.000178    0.000000    0.000065    0.000000
    4    3   -1    1    2   -0.000255   -0.000000    0.000008    0.000000    0.000141   -0.000000
    4    3   -1    2    2    0.000000    0.000000   -0.000183    0.000000   -0.000101   -0.000000
    4    3    0    1    1   -0.000000   -0.000000    0.000260   -0.000000    0.000000   -0.000000
    4    3    0    2    1    0.000132    0.000000    0.000245   -0.000000    0.000056   -0.000000
    4    3    0    1    2   -0.000255   -0.000000    0.000008   -0.000000    0.000049    0.000000
    4    3    0    2    2    0.000000    0.000000   -0.000386   -0.000000   -0.000000    0.000000
    4    3    1    1    1   -0.000000    0.000000    0.000125    0.000000   -0.000168    0.000000
    4    3    1    2    1    0.000132   -0.000000    0.000245   -0.000000   -0.000005    0.000000
    4    3    1    1    2   -0.000147    0.000000   -0.000018    0.000000   -0.000008   -0.000000
    4    3    1    2    2    0.000000   -0.000000   -0.000183    0.000000    0.000101   -0.000000
    4    3    2    1    1   -0.000000    0.000000    0.000186   -0.000000   -0.000078   -0.000000
    4    3    2    2    1    0.000114   -0.000000    0.000178    0.000000   -0.000031    0.000000
    4    3    2    1    2   -0.000088    0.000000   -0.000049   -0.000000   -0.000057    0.000000
    4    3    2    2    2    0.000000    0.000000   -0.000192   -0.000000    0.000050   -0.000000
    4    3    3    1    1   -0.000000    0.000000    0.000039    0.000000   -0.000106    0.000000
    4    3    3    2    1    0.000080    0.000000    0.000102    0.000000   -0.000010   -0.000000
    4    3    3    1    2   -0.000058   -0.000000   -0.000033   -0.000000   -0.000072    0.000000
    4    3    3    2    2    0.000000   -0.000000    0.000047    0.000000    0.000097    0.000000
    4    3    4    1    1    0.000000    0.000000    0.000048   -0.000000   -0.000059   -0.000000
    4    3    4    2    1    0.000059   -0.000000    0.000050    0.000000   -0.000002    0.000000
    4    3    4    1    2   -0.000019   -0.000000   -0.000011    0.000000   -0.000027    0.000000
    4    3    4    2    2   -0.000000    0.000000    0.000091    0.000000    0.000065    0.000000
    4    3    5    1    1    0.000000    0.000000   -0.000037    0.000000   -0.000049    0.000000
    4    3    5    2    1    0.000022   -0.000000   -0.000020    0.000000   -0.000047   -0.000000
    4    3    5    1    2    0.000020    0.000000    0.000035   -0.000000    0.000034    0.000000
    4    3    5    2    2   -0.000000    0.000000    0.000184    0.000000    0.000052    0.000000
    4    3    6    1    1    0.000000   -0.000000   -0.000064   -0.000000   -0.000025   -0.000000
    4    3    6    2    1   -0.000011   -0.000000   -0.000091   -0.000000   -0.000093    0.000000
    4    3    6    1    2    0.000043   -0.000000    0.000070    0.000000    0.000031   -0.000000
    4    3    6    2    2   -0.000000   -0.000000    0.000202    0.000000    0.000026    0.000000
    4    3    7    1    1    0.000000    0.000000   -0.000081   -0.000000   -0.000000   -0.000000
    4    3    7    2    1   -0.000033    0.000000   -0.000141    0.000000   -0.000046    0.000000
    4    3    7    1    2    0.000043   -0.000000    0.000070   -0.000000   -0.000017   -0.000000
    4    3    7    2    2   -0.000000    0.000000    0.000209   -0.000000    0.000000   -0.000000
    5    2   -7    1    1   -0.000000   -0.000000   -0.000002   -0.000000    0.000000   -0.000000
    5    2   -7    2    1    0.000009    0.000000   -0.000027   -0.000000   -0.000040    0.000000
    5    2   -7    1    2    0.000006   -0.000000   -0.000095    0.000000    0.000069    0.000000
    5    2   -7    2    2    0.000000   -0.000000    0.000001    0.000000    0.000000   -0.000000
    5    2   -6    1    1   -0.000000   -0.000000   -0.000003   -0.000000    0.000007    0.000000
    5    2   -6    2    1    0.000009    0.000000   -0.000027    0.000000    0.000038   -0.000000
    5    2   -6    1    2    0.000000   -0.000000   -0.000041   -0.000000    0.000155   -0.000000
    5    2   -6    2    2    0.000000   -0.000000    0.000005   -0.000000   -0.000002    0.000000
    5    2   -5    1    1   -0.000000    0.000000   -0.000005   -0.000000    0.000017    0.000000
    5    2   -5    2    1    0.000008   -0.000000   -0.000028   -0.000000    0.000101    0.000000
    5    2   -5    1    2   -0.000008   -0.000000    0.000030    0.000000    0.000151   -0.000000
    5    2   -5    2    2    0.000000    0.000000    0.000010    0.000000   -0.000019   -0.000000
    5    2   -4    1    1   -0.000000    0.000000   -0.000004    0.000000    0.000025   -0.000000
    5    2   -4    2    1    0.000005    0.000000   -0.000030    0.000000    0.000109    0.000000
    5    2   -4    1    2   -0.000007    0.000000    0.000058   -0.000000    0.000091    0.000000
    5    2   -4    2    2    0.000000    0.000000    0.000011   -0.000000   -0.000039    0.000000
    5    2   -3    1    1   -0.000000   -0.000000   -0.000000    0.000000    0.000020   -0.000000
    5    2   -3    2    1   -0.000001   -0.000000   -0.000031    0.000000    0.000044   -0.000000
    5    2   -3    1    2   -0.000004   -0.000000    0.000031    0.000000    0.000061   -0.000000
    5    2   -3    2    2    0.000000   -0.000000    0.000003    0.000000   -0.000030    0.000000
    5    2   -2    1    1    0.000000   -0.000000    0.000005    0.000000    0.000001    0.000000
    5    2   -2    2    1   -0.000010   -0.000000   -0.000027   -0.000000   -0.000058    0.000000
    5    2   -2    1    2    0.000011    0.000000   -0.000051   -0.000000    0.000073   -0.000000
    5    2   -2    2    2   -0.000000    0.000000   -0.000008   -0.000000    0.000009   -0.000000
    5    2   -1    1    1   -0.000000   -0.000000    0.000008    0.000000   -0.000009    0.000000
    5    2   -1    2    1   -0.000018   -0.000000   -0.000018    0.000000   -0.000118    0.000000
    5    2   -1    1    2    0.000018    0.000000   -0.000113    0.000000    0.000080    0.000000
    5    2   -1    2    2    0.000000    0.000000   -0.000015    0.000000    0.000031   -0.000000
    5    2    0    1    1   -0.000000   -0.000000    0.000008    0.000000    0.000000   -0.000000
    5    2    0    2    1   -0.000024    0.000000   -0.000010   -0.000000   -0.000080   -0.000000
    5    2    0    1    2    0.000018    0.000000   -0.000113   -0.000000    0.000061    0.000000
    5    2    0    2    2    0.000000   -0.000000   -0.000016   -0.000000    0.000000   -0.000000
    5    2    1    1    1   -0.000000   -0.000000    0.000008    0.000000    0.000009   -0.000000
    5    2    1    2    1   -0.000024    0.000000   -0.000010    0.000000    0.000020    0.000000
    5    2    1    1    2    0.000011    0.000000   -0.000051    0.000000    0.000039   -0.000000
    5    2    1    2    2    0.000000    0.000000   -0.000015    0.000000   -0.000031    0.000000
    5    2    2    1    1    0.000000    0.000000    0.000005    0.000000   -0.000001   -0.000000
    5    2    2    2    1   -0.000018    0.000000   -0.000018    0.000000    0.000086   -0.000000
    5    2    2    1    2   -0.000004   -0.000000    0.000031   -0.000000    0.000030    0.000000
    5    2    2    2    2   -0.000000    0.000000   -0.000008    0.000000   -0.000009    0.000000
    5    2    3    1    1   -0.000000    0.000000   -0.000000    0.000000   -0.000020    0.000000
    5    2    3    2    1   -0.000010   -0.000000   -0.000027   -0.000000    0.000061    0.000000
    5    2    3    1    2   -0.000007    0.000000    0.000058   -0.000000   -0.000001    0.000000
    5    2    3    2    2    0.000000   -0.000000    0.000003   -0.000000    0.000030   -0.000000
    5    2    4    1    1   -0.000000    0.000000   -0.000004    0.000000   -0.000025   -0.000000
    5    2    4    2    1   -0.000001    0.000000   -0.000031   -0.000000   -0.000022    0.000000
    5    2    4    1    2   -0.000008   -0.000000    0.000030    0.000000   -0.000065    0.000000
    5    2    4    2    2    0.000000    0.000000    0.000011    0.000000    0.000039    0.000000
    5    2    5    1    1   -0.000000    0.000000   -0.000005    0.000000   -0.000017    0.000000
    5    2    5    2    1    0.000005   -0.000000   -0.000030    0.000000   -0.000089   -0.000000
    5    2    5    1    2    0.000000   -0.000000   -0.000041   -0.000000   -0.000102   -0.000000
    5    2    5    2    2    0.000000    0.000000    0.000010   -0.000000    0.000019   -0.000000
    5    2    6    1    1   -0.000000   -0.000000   -0.000003   -0.000000   -0.000007   -0.000000
    5    2    6    2    1    0.000008    0.000000   -0.000028   -0.000000   -0.000093    0.000000
    5    2    6    1    2    0.000006    0.000000   -0.000095    0.000000   -0.000052   -0.000000
    5    2    6    2    2    0.000000   -0.000000    0.000005   -0.000000    0.000002   -0.000000
    5    2    7    1    1   -0.000000   -0.000000   -0.000002   -0.000000   -0.000000   -0.000000
    5    2    7    2    1    0.000009    0.000000   -0.000027   -0.000000   -0.000040    0.000000
    5    2    7    1    2    0.000006   -0.000000   -0.000095    0.000000    0.000069    0.000000
    5    2    7    2    2    0.000000   -0.000000    0.000001    0.000000   -0.000000   -0.000000
